
     Program PWSCF v.6.4.1 starts on 22Jul2020 at 16:33: 9 

     This program is part of the open-source Quantum ESPRESSO suite
     for quantum simulation of materials; please cite
         "P. Giannozzi et al., J. Phys.:Condens. Matter 21 395502 (2009);
         "P. Giannozzi et al., J. Phys.:Condens. Matter 29 465901 (2017);
          URL http://www.quantum-espresso.org", 
     in publications or presentations arising from this work. More details at
     http://www.quantum-espresso.org/quote

     Parallel version (MPI), running on    36 processors

     MPI processes distributed on     1 nodes
     R & G space division:  proc/nbgrp/npool/nimage =      36
     Waiting for input...
     Reading input from standard input

     Current dimensions of program PWSCF are:
     Max number of different atomic species (ntypx) = 10
     Max number of k-points (npk) =  40000
     Max angular momentum in pseudopotentials (lmaxx) =  3

     IMPORTANT: XC functional enforced from input :
     Exchange-correlation      = PBE ( 1  4  3  4 0 0)
     Any further DFT definition will be discarded
     Please, verify this is what you really want


     --------------------------------------------
     Parameters for DFT-D3 Dispersion Correction:
     --------------------------------------------
       Reference C6 values for interpolation: 

         atom   Coordination number   C6
         H          0.912             6.05
         H          0.000            15.18
         C          0.000            98.23
         C          0.987            86.49
         C          1.998            58.72
         C          2.999            51.56
         C          3.984            36.41

       Values used:

         atom   Coordination number  R0_AB[au]  C6      C8
         C          3.203            2.750     50.02   1446.63
         C          3.234            2.750     49.64   1435.75
         C          3.166            2.750     50.39   1457.47
         C          3.132            2.750     50.67   1465.54
         C          3.203            2.750     50.02   1446.63
         C          3.233            2.750     49.65   1435.85
         C          3.166            2.750     50.40   1457.55
         C          3.131            2.750     50.68   1465.73
         C          3.233            2.750     49.65   1435.85
         C          3.166            2.750     50.40   1457.55
         C          3.131            2.750     50.68   1465.73
         C          3.234            2.750     49.64   1435.75
         C          3.166            2.750     50.39   1457.47
         C          3.132            2.750     50.67   1465.54
         H          1.007            2.062      6.17     74.64
         H          1.007            2.062      6.17     74.64
         H          1.005            2.062      6.18     74.66
         H          1.007            2.062      6.17     74.64
         H          1.007            2.062      6.17     74.64
         H          1.005            2.062      6.18     74.66
         H          1.007            2.062      6.17     74.64
         H          1.005            2.062      6.18     74.66
         H          1.007            2.062      6.17     74.64
         H          1.005            2.062      6.18     74.66
         C          3.203            2.750     50.02   1446.63
         C          3.233            2.750     49.65   1435.85
         C          3.166            2.750     50.40   1457.55
         C          3.131            2.750     50.68   1465.73
         C          3.203            2.750     50.02   1446.63
         C          3.234            2.750     49.64   1435.75
         C          3.166            2.750     50.39   1457.47
         C          3.132            2.750     50.67   1465.54
         C          3.234            2.750     49.64   1435.75
         C          3.166            2.750     50.39   1457.47
         C          3.132            2.750     50.67   1465.54
         C          3.233            2.750     49.65   1435.85
         C          3.166            2.750     50.40   1457.55
         C          3.131            2.750     50.68   1465.73
         H          1.007            2.062      6.17     74.64
         H          1.007            2.062      6.17     74.64
         H          1.005            2.062      6.18     74.66
         H          1.007            2.062      6.17     74.64
         H          1.007            2.062      6.17     74.64
         H          1.005            2.062      6.18     74.66
         H          1.007            2.062      6.17     74.64
         H          1.005            2.062      6.18     74.66
         H          1.007            2.062      6.17     74.64
         H          1.005            2.062      6.18     74.66

         Molecular C6 ( Ry / a.u.^6 ) =     61522.38


     Subspace diagonalization in iterative solution of the eigenvalue problem:
     one sub-group per band group will be used
     scalapack distributed-memory algorithm (size of sub-group:  4*  4 procs)

     Message from routine setup:
     DEPRECATED: symmetry with ibrav=0, use correct ibrav instead
 
     Parallelization info
     --------------------
     sticks:   dense  smooth     PW     G-vecs:    dense   smooth      PW
     Min         200      89     24                20445     6057     866
     Max         201      90     25                20449     6061     871
     Sum        7203    3211    873               736131   218125   31313
 


     bravais-lattice index     =            0
     lattice parameter (alat)  =      14.1156  a.u.
     unit-cell volume          =    3153.5844 (a.u.)^3
     number of atoms/cell      =           48
     number of atomic types    =            2
     number of electrons       =       132.00
     number of Kohn-Sham states=           66
     kinetic-energy cutoff     =      64.0000  Ry
     charge density cutoff     =     576.0000  Ry
     convergence threshold     =      1.0E-08
     mixing beta               =       0.7000
     number of iterations used =            8  plain     mixing
     Exchange-correlation      = PBE ( 1  4  3  4 0 0)
     nstep                     =           50


     celldm(1)=  14.115623  celldm(2)=   0.000000  celldm(3)=   0.000000
     celldm(4)=   0.000000  celldm(5)=   0.000000  celldm(6)=   0.000000

     crystal axes: (cart. coord. in units of alat)
               a(1) = (   1.000000   0.000000   0.000524 )  
               a(2) = (   0.000000   0.790246   0.000000 )  
               a(3) = (   0.273200   0.000000   1.419012 )  

     reciprocal axes: (cart. coord. in units 2 pi/alat)
               b(1) = (  1.000101  0.000000 -0.192548 )  
               b(2) = (  0.000000  1.265429  0.000000 )  
               b(3) = ( -0.000370  0.000000  0.704787 )  


     PseudoPot. # 1 for C  read from file:
     /home/ck834/qe/pseudo/C.pbe-n-rrkjus_psl.1.0.0.UPF
     MD5 check sum: 1fdd950c42eb37d8afe3dd2f8d12311e
     Pseudo is Ultrasoft + core correction, Zval =  4.0
     Generated using "atomic" code by A. Dal Corso v.6.3MaX
     Using radial grid of 1073 points,  4 beta functions with: 
                l(1) =   0
                l(2) =   0
                l(3) =   1
                l(4) =   1
     Q(r) pseudized with 0 coefficients 


     PseudoPot. # 2 for H  read from file:
     /home/ck834/qe/pseudo/H.pbe-rrkjus_psl.1.0.0.UPF
     MD5 check sum: 3f4114867bd07edc7f1424d066fc1888
     Pseudo is Ultrasoft, Zval =  1.0
     Generated using "atomic" code by A. Dal Corso v.6.3MaX
     Using radial grid of  929 points,  2 beta functions with: 
                l(1) =   0
                l(2) =   0
     Q(r) pseudized with 0 coefficients 


     atomic species   valence    mass     pseudopotential
        C              4.00    12.01100     C ( 1.00)
        H              1.00     1.00794     H ( 1.00)

      4 Sym. Ops., with inversion, found ( 2 have fractional translation)


                                    s                        frac. trans.

      isym =  1     identity                                     

 cryst.   s( 1) = (     1          0          0      )
                  (     0          1          0      )
                  (     0          0          1      )

 cart.    s( 1) = (  1.0000000  0.0000000  0.0000000 )
                  (  0.0000000  1.0000000  0.0000000 )
                  (  0.0000000  0.0000000  1.0000000 )


      isym =  2     180 deg rotation - cart. axis [0,1,0]        

 cryst.   s( 2) = (    -1          0          0      )    f =(  0.5000000 )
                  (     0          1          0      )       ( -0.5000000 )
                  (     0          0         -1      )       (  0.0000000 )

 cart.    s( 2) = ( -1.0000000  0.0000000  0.0000000 )    f =(  0.4999999 )
                  (  0.0000000  1.0000000  0.0000000 )       ( -0.3951230 )
                  (  0.0000000  0.0000000 -1.0000000 )       (  0.0002622 )


      isym =  3     inversion                                    

 cryst.   s( 3) = (    -1          0          0      )
                  (     0         -1          0      )
                  (     0          0         -1      )

 cart.    s( 3) = ( -1.0000000  0.0000000  0.0000000 )
                  (  0.0000000 -1.0000000  0.0000000 )
                  (  0.0000000  0.0000000 -1.0000000 )


      isym =  4     inv. 180 deg rotation - cart. axis [0,1,0]   

 cryst.   s( 4) = (     1          0          0      )    f =(  0.5000000 )
                  (     0         -1          0      )       (  0.5000000 )
                  (     0          0          1      )       (  0.0000000 )

 cart.    s( 4) = (  1.0000000  0.0000000  0.0000000 )    f =(  0.4999999 )
                  (  0.0000000 -1.0000000  0.0000000 )       (  0.3951230 )
                  (  0.0000000  0.0000000  1.0000000 )       (  0.0002622 )


   Cartesian axes

     site n.     atom                  positions (alat units)
         1           C   tau(   1) = (  -0.0847399   0.1686565   0.0000827  )
         2           C   tau(   2) = (  -0.0433373   0.0865675  -0.1634823  )
         3           C   tau(   3) = (  -0.0849710   0.1685094  -0.3309602  )
         4           C   tau(   4) = (  -0.0431059   0.0851258  -0.4893008  )
         5           C   tau(   5) = (   0.0847399  -0.1686565  -0.0000827  )
         6           C   tau(   6) = (   0.0432716  -0.0865307  -0.1636232  )
         7           C   tau(   7) = (   0.0849157  -0.1683087  -0.3312388  )
         8           C   tau(   8) = (   0.0430247  -0.0847302  -0.4895351  )
         9           C   tau(   9) = (  -0.0432716   0.0865307   0.1636232  )
        10           C   tau(  10) = (  -0.0849157   0.1683087   0.3312388  )
        11           C   tau(  11) = (  -0.0430247   0.0847302   0.4895351  )
        12           C   tau(  12) = (   0.0433373  -0.0865675   0.1634823  )
        13           C   tau(  13) = (   0.0849710  -0.1685094   0.3309602  )
        14           C   tau(  14) = (   0.0431059  -0.0851258   0.4893008  )
        15           H   tau(  15) = (  -0.1511311   0.2986868  -0.0000094  )
        16           H   tau(  16) = (  -0.1514445   0.2982078  -0.3310040  )
        17           H   tau(  17) = (  -0.0771026   0.1491629  -0.6158262  )
        18           H   tau(  18) = (   0.1511311  -0.2986868   0.0000094  )
        19           H   tau(  19) = (   0.1511147  -0.2981683  -0.3310512  )
        20           H   tau(  20) = (   0.0753937  -0.1488166  -0.6165105  )
        21           H   tau(  21) = (  -0.1511147   0.2981683   0.3310512  )
        22           H   tau(  22) = (  -0.0753937   0.1488166   0.6165105  )
        23           H   tau(  23) = (   0.1514445  -0.2982078   0.3310040  )
        24           H   tau(  24) = (   0.0771026  -0.1491629   0.6158262  )
        25           C   tau(  25) = (   0.5847399   0.5637795   0.0001795  )
        26           C   tau(  26) = (   0.5432715   0.4816537  -0.1633610  )
        27           C   tau(  27) = (   0.5849157   0.5634317  -0.3309767  )
        28           C   tau(  28) = (   0.5430246   0.4798532  -0.4892729  )
        29           C   tau(  29) = (   0.4152600   0.2264665   0.0003449  )
        30           C   tau(  30) = (   0.4566626   0.3085555  -0.1632201  )
        31           C   tau(  31) = (   0.4150289   0.2266137  -0.3306980  )
        32           C   tau(  32) = (   0.4568940   0.3099972  -0.4890386  )
        33           C   tau(  33) = (   0.5433373   0.4816905   0.1637445  )
        34           C   tau(  34) = (   0.5849709   0.5636324   0.3312224  )
        35           C   tau(  35) = (   0.5431058   0.4802488   0.4895629  )
        36           C   tau(  36) = (   0.4567283   0.3085923   0.1638854  )
        37           C   tau(  37) = (   0.4150842   0.2268143   0.3315010  )
        38           C   tau(  38) = (   0.4569753   0.3103928   0.4897972  )
        39           H   tau(  39) = (   0.6511310   0.6938098   0.0002716  )
        40           H   tau(  40) = (   0.6511146   0.6932913  -0.3307890  )
        41           H   tau(  41) = (   0.5753936   0.5439396  -0.6162483  )
        42           H   tau(  42) = (   0.3488689   0.0964362   0.0002528  )
        43           H   tau(  43) = (   0.3485555   0.0969152  -0.3307418  )
        44           H   tau(  44) = (   0.4228973   0.2459601  -0.6155641  )
        45           H   tau(  45) = (   0.6514444   0.6933308   0.3312662  )
        46           H   tau(  46) = (   0.5771025   0.5442859   0.6160884  )
        47           H   tau(  47) = (   0.3488852   0.0969547   0.3313134  )
        48           H   tau(  48) = (   0.4246063   0.2463064   0.6167727  )

   Crystallographic axes

     site n.     atom                  positions (cryst. coord.)
         1           C   tau(   1) = ( -0.0847644  0.2134227  0.0000896  )
         2           C   tau(   2) = ( -0.0118636  0.1095450 -0.1152042  )
         3           C   tau(   3) = ( -0.0212540  0.2132366 -0.2332250  )
         4           C   tau(   4) = (  0.0511034  0.1077206 -0.3448369  )
         5           C   tau(   5) = (  0.0847644 -0.2134227 -0.0000896  )
         6           C   tau(   6) = (  0.0747812 -0.1094985 -0.1153355  )
         7           C   tau(   7) = (  0.1487036 -0.2129827 -0.2334842  )
         8           C   tau(   8) = (  0.1372878 -0.1072201 -0.3450339  )
         9           C   tau(   9) = ( -0.0747812  0.1094985  0.1153355  )
        10           C   tau(  10) = ( -0.1487036  0.2129827  0.2334842  )
        11           C   tau(  11) = ( -0.1372878  0.1072201  0.3450339  )
        12           C   tau(  12) = (  0.0118636 -0.1095450  0.1152042  )
        13           C   tau(  13) = (  0.0212540 -0.2132366  0.2332250  )
        14           C   tau(  14) = ( -0.0511034 -0.1077206  0.3448369  )
        15           H   tau(  15) = ( -0.1511445  0.3779668  0.0000492  )
        16           H   tau(  16) = ( -0.0877257  0.3773607 -0.2332313  )
        17           H   tau(  17) = (  0.0414655  0.1887550 -0.4339979  )
        18           H   tau(  18) = (  0.1511445 -0.3779668 -0.0000492  )
        19           H   tau(  19) = (  0.2148731 -0.3773107 -0.2333765  )
        20           H   tau(  20) = (  0.1941089 -0.1883168 -0.4345365  )
        21           H   tau(  21) = ( -0.2148731  0.3773107  0.2333765  )
        22           H   tau(  22) = ( -0.1941089  0.1883168  0.4345365  )
        23           H   tau(  23) = (  0.0877257 -0.3773607  0.2332313  )
        24           H   tau(  24) = ( -0.0414655 -0.1887550  0.4339979  )
        25           C   tau(  25) = (  0.5847644  0.7134227 -0.0000896  )
        26           C   tau(  26) = (  0.5747812  0.6094985 -0.1153355  )
        27           C   tau(  27) = (  0.6487036  0.7129827 -0.2334842  )
        28           C   tau(  28) = (  0.6372878  0.6072201 -0.3450339  )
        29           C   tau(  29) = (  0.4152356  0.2865773  0.0000896  )
        30           C   tau(  30) = (  0.4881364  0.3904550 -0.1152042  )
        31           C   tau(  31) = (  0.4787460  0.2867634 -0.2332250  )
        32           C   tau(  32) = (  0.5511034  0.3922794 -0.3448369  )
        33           C   tau(  33) = (  0.5118636  0.6095450  0.1152042  )
        34           C   tau(  34) = (  0.5212540  0.7132366  0.2332250  )
        35           C   tau(  35) = (  0.4488966  0.6077206  0.3448369  )
        36           C   tau(  36) = (  0.4252188  0.3905015  0.1153355  )
        37           C   tau(  37) = (  0.3512964  0.2870173  0.2334842  )
        38           C   tau(  38) = (  0.3627122  0.3927799  0.3450339  )
        39           H   tau(  39) = (  0.6511445  0.8779668 -0.0000492  )
        40           H   tau(  40) = (  0.7148731  0.8773107 -0.2333765  )
        41           H   tau(  41) = (  0.6941089  0.6883168 -0.4345365  )
        42           H   tau(  42) = (  0.3488555  0.1220332  0.0000492  )
        43           H   tau(  43) = (  0.4122743  0.1226393 -0.2332313  )
        44           H   tau(  44) = (  0.5414655  0.3112450 -0.4339979  )
        45           H   tau(  45) = (  0.5877257  0.8773607  0.2332313  )
        46           H   tau(  46) = (  0.4585345  0.6887550  0.4339979  )
        47           H   tau(  47) = (  0.2851269  0.1226893  0.2333765  )
        48           H   tau(  48) = (  0.3058911  0.3116832  0.4345365  )

     number of k points=     6
                       cart. coord. in units 2pi/alat
        k(    1) = (   0.1665911   0.2109048   0.1441055), wk =   0.4444444
        k(    2) = (   0.1667759   0.2109048  -0.2082880), wk =   0.4444444
        k(    3) = (   0.1665911  -0.6327144   0.1441055), wk =   0.2222222
        k(    4) = (   0.1667759  -0.6327144  -0.2082880), wk =   0.2222222
        k(    5) = (  -0.5001429   0.2109048   0.2724706), wk =   0.4444444
        k(    6) = (  -0.5001429  -0.6327144   0.2724706), wk =   0.2222222

                       cryst. coord.
        k(    1) = (   0.1666667   0.1666667   0.2500000), wk =   0.4444444
        k(    2) = (   0.1666667   0.1666667  -0.2500000), wk =   0.4444444
        k(    3) = (   0.1666667  -0.5000000   0.2500000), wk =   0.2222222
        k(    4) = (   0.1666667  -0.5000000  -0.2500000), wk =   0.2222222
        k(    5) = (  -0.5000000   0.1666667   0.2500000), wk =   0.4444444
        k(    6) = (  -0.5000000  -0.5000000   0.2500000), wk =   0.2222222

     Dense  grid:   736131 G-vectors     FFT dimensions: ( 108,  90, 160)

     Smooth grid:   218125 G-vectors     FFT dimensions: (  72,  60, 108)

     Dynamical RAM for                 wfc:       0.76 MB

     Dynamical RAM for     wfc (w. buffer):       5.34 MB

     Dynamical RAM for           str. fact:       0.62 MB

     Dynamical RAM for           local pot:       0.00 MB

     Dynamical RAM for          nlocal pot:       3.05 MB

     Dynamical RAM for                qrad:       7.41 MB

     Dynamical RAM for          rho,v,vnew:       2.05 MB

     Dynamical RAM for               rhoin:       0.68 MB

     Dynamical RAM for            rho*nmix:       4.99 MB

     Dynamical RAM for           G-vectors:       1.22 MB

     Dynamical RAM for          h,s,v(r/c):       0.20 MB

     Dynamical RAM for          <psi|beta>:       0.27 MB

     Dynamical RAM for                 psi:       3.05 MB

     Dynamical RAM for                hpsi:       3.05 MB

     Dynamical RAM for                spsi:       3.05 MB

     Dynamical RAM for      wfcinit/wfcrot:       3.45 MB

     Dynamical RAM for           addusdens:      22.15 MB

     Dynamical RAM for          addusforce:      57.92 MB

     Dynamical RAM for         addusstress:      15.60 MB

     Estimated static dynamical RAM per process >      28.15 MB

     Estimated max dynamical RAM per process >      86.07 MB

     Estimated total dynamical RAM >       3.03 GB

     Check: negative core charge=   -0.000002

     Initial potential from superposition of free atoms

     starting charge  131.99865, renormalised to  132.00000
     Starting wfcs are  132 randomized atomic wfcs

     total cpu time spent up to now is        2.0 secs

     Self-consistent Calculation

     iteration #  1     ecut=    64.00 Ry     beta= 0.70
     Davidson diagonalization with overlap
     ethr =  1.00E-02,  avg # of iterations =  2.0

     total cpu time spent up to now is        7.9 secs

     total energy              =    -370.32651548 Ry
     Harris-Foulkes estimate   =    -373.56683175 Ry
     estimated scf accuracy    <       5.24066724 Ry

     iteration #  2     ecut=    64.00 Ry     beta= 0.70
     Davidson diagonalization with overlap
     ethr =  3.97E-03,  avg # of iterations =  2.0

     total cpu time spent up to now is        9.1 secs

     total energy              =    -371.27939367 Ry
     Harris-Foulkes estimate   =    -371.83962812 Ry
     estimated scf accuracy    <       0.92671175 Ry

     iteration #  3     ecut=    64.00 Ry     beta= 0.70
     Davidson diagonalization with overlap
     ethr =  7.02E-04,  avg # of iterations =  2.0

     total cpu time spent up to now is       10.3 secs

     total energy              =    -371.50552022 Ry
     Harris-Foulkes estimate   =    -371.56312777 Ry
     estimated scf accuracy    <       0.09889882 Ry

     iteration #  4     ecut=    64.00 Ry     beta= 0.70
     Davidson diagonalization with overlap
     ethr =  7.49E-05,  avg # of iterations =  4.0

     total cpu time spent up to now is       11.6 secs

     total energy              =    -371.51980387 Ry
     Harris-Foulkes estimate   =    -371.54243691 Ry
     estimated scf accuracy    <       0.04790937 Ry

     iteration #  5     ecut=    64.00 Ry     beta= 0.70
     Davidson diagonalization with overlap
     ethr =  3.63E-05,  avg # of iterations =  3.0

     total cpu time spent up to now is       12.8 secs

     total energy              =    -371.53160366 Ry
     Harris-Foulkes estimate   =    -371.53619027 Ry
     estimated scf accuracy    <       0.01411142 Ry

     iteration #  6     ecut=    64.00 Ry     beta= 0.70
     Davidson diagonalization with overlap
     ethr =  1.07E-05,  avg # of iterations =  3.0

     total cpu time spent up to now is       13.8 secs

     total energy              =    -371.53346622 Ry
     Harris-Foulkes estimate   =    -371.53354904 Ry
     estimated scf accuracy    <       0.00022217 Ry

     iteration #  7     ecut=    64.00 Ry     beta= 0.70
     Davidson diagonalization with overlap
     ethr =  1.68E-07,  avg # of iterations =  4.0

     total cpu time spent up to now is       15.3 secs

     total energy              =    -371.53356914 Ry
     Harris-Foulkes estimate   =    -371.53358070 Ry
     estimated scf accuracy    <       0.00003382 Ry

     iteration #  8     ecut=    64.00 Ry     beta= 0.70
     Davidson diagonalization with overlap
     ethr =  2.56E-08,  avg # of iterations =  3.0

     total cpu time spent up to now is       16.5 secs

     total energy              =    -371.53357383 Ry
     Harris-Foulkes estimate   =    -371.53357724 Ry
     estimated scf accuracy    <       0.00001156 Ry

     iteration #  9     ecut=    64.00 Ry     beta= 0.70
     Davidson diagonalization with overlap
     ethr =  8.75E-09,  avg # of iterations =  3.0

     total cpu time spent up to now is       17.6 secs

     total energy              =    -371.53357457 Ry
     Harris-Foulkes estimate   =    -371.53357514 Ry
     estimated scf accuracy    <       0.00000150 Ry

     iteration # 10     ecut=    64.00 Ry     beta= 0.70
     Davidson diagonalization with overlap
     ethr =  1.14E-09,  avg # of iterations =  3.7

     total cpu time spent up to now is       18.8 secs

     total energy              =    -371.53357497 Ry
     Harris-Foulkes estimate   =    -371.53357502 Ry
     estimated scf accuracy    <       0.00000016 Ry

     iteration # 11     ecut=    64.00 Ry     beta= 0.70
     Davidson diagonalization with overlap
     ethr =  1.24E-10,  avg # of iterations =  3.0

     total cpu time spent up to now is       19.9 secs

     End of self-consistent calculation

          k = 0.1666 0.2109 0.1441 ( 27248 PWs)   bands (ev):

   -15.6521 -15.5329 -14.8414 -14.7372 -13.5845 -13.4752 -13.0235 -13.0094
   -12.1930 -12.1748 -11.9360 -11.8988 -10.9388 -10.9325  -9.6341  -9.5155
    -8.8081  -8.7991  -8.4891  -8.4165  -8.1646  -8.1586  -6.8618  -6.7975
    -6.5616  -6.4887  -6.0639  -6.0002  -5.0386  -4.9033  -4.8876  -4.7968
    -4.7346  -4.5891  -4.5330  -4.5213  -3.9867  -3.8679  -3.6376  -3.5935
    -3.5522  -3.4811  -3.4602  -3.2257  -3.0553  -3.0284  -2.8102  -2.7895
    -2.6469  -2.3764  -1.9899  -1.7903  -1.6815  -1.6692  -1.5695  -1.3673
    -1.3625  -1.1197  -1.0211  -0.8798  -0.3644   0.0285   0.0990   0.2781
     1.0860   1.5744

     occupation numbers 
     1.0000   1.0000   1.0000   1.0000   1.0000   1.0000   1.0000   1.0000
     1.0000   1.0000   1.0000   1.0000   1.0000   1.0000   1.0000   1.0000
     1.0000   1.0000   1.0000   1.0000   1.0000   1.0000   1.0000   1.0000
     1.0000   1.0000   1.0000   1.0000   1.0000   1.0000   1.0000   1.0000
     1.0000   1.0000   1.0000   1.0000   1.0000   1.0000   1.0000   1.0000
     1.0000   1.0000   1.0000   1.0000   1.0000   1.0000   1.0000   1.0000
     1.0000   1.0000   1.0000   1.0000   1.0000   1.0000   1.0000   1.0000
     1.0000   1.0000   1.0000   1.0000   1.0000   1.0000   1.0000   1.0000
     1.0000   1.0000

          k = 0.1668 0.2109-0.2083 ( 27248 PWs)   bands (ev):

   -15.6510 -15.5341 -14.8465 -14.7320 -13.5724 -13.4875 -13.0243 -13.0086
   -12.1892 -12.1786 -11.9560 -11.8791 -10.9473 -10.9239  -9.6016  -9.5471
    -8.8231  -8.7837  -8.4889  -8.4170  -8.1692  -8.1566  -6.8541  -6.8050
    -6.5623  -6.4832  -6.0878  -5.9821  -5.0017  -4.9471  -4.8832  -4.8031
    -4.7286  -4.5536  -4.5467  -4.5344  -3.9671  -3.8901  -3.6299  -3.5915
    -3.5527  -3.5129  -3.4272  -3.2288  -3.0764  -3.0071  -2.8267  -2.7855
    -2.6672  -2.3697  -1.9514  -1.8024  -1.6923  -1.6423  -1.5912  -1.3735
    -1.3442  -1.1329  -1.0245  -0.8793  -0.3670   0.0233   0.1028   0.2832
     1.0951   1.5671

     occupation numbers 
     1.0000   1.0000   1.0000   1.0000   1.0000   1.0000   1.0000   1.0000
     1.0000   1.0000   1.0000   1.0000   1.0000   1.0000   1.0000   1.0000
     1.0000   1.0000   1.0000   1.0000   1.0000   1.0000   1.0000   1.0000
     1.0000   1.0000   1.0000   1.0000   1.0000   1.0000   1.0000   1.0000
     1.0000   1.0000   1.0000   1.0000   1.0000   1.0000   1.0000   1.0000
     1.0000   1.0000   1.0000   1.0000   1.0000   1.0000   1.0000   1.0000
     1.0000   1.0000   1.0000   1.0000   1.0000   1.0000   1.0000   1.0000
     1.0000   1.0000   1.0000   1.0000   1.0000   1.0000   1.0000   1.0000
     1.0000   1.0000

          k = 0.1666-0.6327 0.1441 ( 27280 PWs)   bands (ev):

   -15.5731 -15.5731 -14.7715 -14.7715 -13.5145 -13.5145 -13.0837 -13.0837
   -12.2470 -12.2470 -11.9111 -11.9111 -10.9936 -10.9936  -9.5491  -9.5491
    -8.8249  -8.8249  -8.2962  -8.2962  -8.0619  -8.0619  -6.8760  -6.8760
    -6.4489  -6.4489  -5.9073  -5.9073  -5.0193  -5.0193  -4.8550  -4.8550
    -4.7537  -4.7537  -4.5284  -4.5284  -4.0190  -4.0190  -3.7185  -3.7185
    -3.6549  -3.6549  -3.4682  -3.4682  -2.9724  -2.9724  -2.7969  -2.7969
    -2.7157  -2.7157  -1.7381  -1.7381  -1.6296  -1.6296  -1.3206  -1.3206
    -1.2602  -1.2602  -0.8424  -0.8424   0.0715   0.0715   0.1336   0.1336
     1.5349   1.5349

     occupation numbers 
     1.0000   1.0000   1.0000   1.0000   1.0000   1.0000   1.0000   1.0000
     1.0000   1.0000   1.0000   1.0000   1.0000   1.0000   1.0000   1.0000
     1.0000   1.0000   1.0000   1.0000   1.0000   1.0000   1.0000   1.0000
     1.0000   1.0000   1.0000   1.0000   1.0000   1.0000   1.0000   1.0000
     1.0000   1.0000   1.0000   1.0000   1.0000   1.0000   1.0000   1.0000
     1.0000   1.0000   1.0000   1.0000   1.0000   1.0000   1.0000   1.0000
     1.0000   1.0000   1.0000   1.0000   1.0000   1.0000   1.0000   1.0000
     1.0000   1.0000   1.0000   1.0000   1.0000   1.0000   1.0000   1.0000
     1.0000   1.0000

          k = 0.1668-0.6327-0.2083 ( 27304 PWs)   bands (ev):

   -15.5731 -15.5731 -14.7717 -14.7717 -13.5141 -13.5141 -13.0838 -13.0838
   -12.2465 -12.2465 -11.9117 -11.9117 -10.9948 -10.9948  -9.5476  -9.5476
    -8.8238  -8.8238  -8.2961  -8.2961  -8.0620  -8.0620  -6.8758  -6.8758
    -6.4548  -6.4548  -5.9079  -5.9079  -5.0157  -5.0157  -4.8561  -4.8561
    -4.7495  -4.7495  -4.5302  -4.5302  -4.0072  -4.0072  -3.7259  -3.7259
    -3.6571  -3.6571  -3.4655  -3.4655  -2.9785  -2.9785  -2.7889  -2.7889
    -2.7243  -2.7243  -1.7446  -1.7446  -1.6270  -1.6270  -1.3256  -1.3256
    -1.2537  -1.2537  -0.8370  -0.8370   0.0698   0.0698   0.1349   0.1349
     1.5368   1.5368

     occupation numbers 
     1.0000   1.0000   1.0000   1.0000   1.0000   1.0000   1.0000   1.0000
     1.0000   1.0000   1.0000   1.0000   1.0000   1.0000   1.0000   1.0000
     1.0000   1.0000   1.0000   1.0000   1.0000   1.0000   1.0000   1.0000
     1.0000   1.0000   1.0000   1.0000   1.0000   1.0000   1.0000   1.0000
     1.0000   1.0000   1.0000   1.0000   1.0000   1.0000   1.0000   1.0000
     1.0000   1.0000   1.0000   1.0000   1.0000   1.0000   1.0000   1.0000
     1.0000   1.0000   1.0000   1.0000   1.0000   1.0000   1.0000   1.0000
     1.0000   1.0000   1.0000   1.0000   1.0000   1.0000   1.0000   1.0000
     1.0000   1.0000

          k =-0.5001 0.2109 0.2725 ( 27287 PWs)   bands (ev):

   -15.5948 -15.5924 -14.7953 -14.7850 -13.5428 -13.5183 -13.0161 -13.0144
   -12.1869 -12.1790 -11.9373 -11.8976 -10.9439 -10.9262  -9.6069  -9.5427
    -8.8276  -8.7795  -8.4608  -8.4599  -8.1722  -8.1586  -6.8825  -6.7687
    -6.6037  -6.4536  -6.0631  -6.0209  -5.0530  -4.9310  -4.8536  -4.7737
    -4.5874  -4.5312  -4.5245  -4.5233  -3.9009  -3.8435  -3.5851  -3.5725
    -3.5616  -3.5514  -3.5109  -3.4107  -3.0915  -3.0073  -2.8576  -2.7330
    -2.6958  -2.5690  -1.8850  -1.7729  -1.6915  -1.5499  -1.4270  -1.3984
    -1.2116  -1.2041  -1.0908  -1.0795  -0.1623  -0.1532   0.1494   0.1588
     1.3048   1.3224

     occupation numbers 
     1.0000   1.0000   1.0000   1.0000   1.0000   1.0000   1.0000   1.0000
     1.0000   1.0000   1.0000   1.0000   1.0000   1.0000   1.0000   1.0000
     1.0000   1.0000   1.0000   1.0000   1.0000   1.0000   1.0000   1.0000
     1.0000   1.0000   1.0000   1.0000   1.0000   1.0000   1.0000   1.0000
     1.0000   1.0000   1.0000   1.0000   1.0000   1.0000   1.0000   1.0000
     1.0000   1.0000   1.0000   1.0000   1.0000   1.0000   1.0000   1.0000
     1.0000   1.0000   1.0000   1.0000   1.0000   1.0000   1.0000   1.0000
     1.0000   1.0000   1.0000   1.0000   1.0000   1.0000   1.0000   1.0000
     1.0000   1.0000

          k =-0.5001-0.6327 0.2725 ( 27284 PWs)   bands (ev):

   -15.5722 -15.5722 -14.7708 -14.7708 -13.5137 -13.5137 -13.0873 -13.0873
   -12.2502 -12.2502 -11.9108 -11.9108 -10.9970 -10.9970  -9.5466  -9.5466
    -8.8273  -8.8273  -8.2799  -8.2799  -8.0540  -8.0540  -6.8698  -6.8698
    -6.4541  -6.4541  -5.8945  -5.8945  -4.9566  -4.9566  -4.9312  -4.9312
    -4.8843  -4.8843  -4.5246  -4.5246  -4.0870  -4.0870  -3.7501  -3.7501
    -3.4506  -3.4506  -3.4198  -3.4198  -2.9867  -2.9867  -2.7186  -2.7186
    -2.5508  -2.5508  -1.8939  -1.8939  -1.6253  -1.6253  -1.5275  -1.5275
    -1.2373  -1.2373  -0.7874  -0.7874   0.0331   0.0331   0.1349   0.1349
     1.4937   1.4937

     occupation numbers 
     1.0000   1.0000   1.0000   1.0000   1.0000   1.0000   1.0000   1.0000
     1.0000   1.0000   1.0000   1.0000   1.0000   1.0000   1.0000   1.0000
     1.0000   1.0000   1.0000   1.0000   1.0000   1.0000   1.0000   1.0000
     1.0000   1.0000   1.0000   1.0000   1.0000   1.0000   1.0000   1.0000
     1.0000   1.0000   1.0000   1.0000   1.0000   1.0000   1.0000   1.0000
     1.0000   1.0000   1.0000   1.0000   1.0000   1.0000   1.0000   1.0000
     1.0000   1.0000   1.0000   1.0000   1.0000   1.0000   1.0000   1.0000
     1.0000   1.0000   1.0000   1.0000   1.0000   1.0000   1.0000   1.0000
     1.0000   1.0000

     highest occupied level (ev):     1.5744

!    total energy              =    -371.53357499 Ry
     Harris-Foulkes estimate   =    -371.53357499 Ry
     estimated scf accuracy    <          5.1E-09 Ry

     The total energy is the sum of the following terms:

     one-electron contribution =    -298.54987202 Ry
     hartree contribution      =     195.04251472 Ry
     xc contribution           =    -143.70468007 Ry
     ewald contribution        =    -124.12628637 Ry
     DFT-D3 Dispersion         =      -0.19525124 Ry

     convergence has been achieved in  11 iterations

     Forces acting on atoms (cartesian axes, Ry/au):

     atom    1 type  1   force =     0.00099858   -0.00277557    0.00007799
     atom    2 type  1   force =    -0.00130559    0.00216404   -0.00074080
     atom    3 type  1   force =     0.00058551   -0.00218693    0.00006941
     atom    4 type  1   force =    -0.00032732   -0.00039959    0.00114390
     atom    5 type  1   force =    -0.00099858    0.00277557   -0.00007799
     atom    6 type  1   force =     0.00170460   -0.00192687   -0.00085435
     atom    7 type  1   force =    -0.00056422    0.00229307    0.00008368
     atom    8 type  1   force =    -0.00040515    0.00036013    0.00092176
     atom    9 type  1   force =    -0.00170460    0.00192687    0.00085435
     atom   10 type  1   force =     0.00056422   -0.00229307   -0.00008368
     atom   11 type  1   force =     0.00040515   -0.00036013   -0.00092176
     atom   12 type  1   force =     0.00130559   -0.00216404    0.00074080
     atom   13 type  1   force =    -0.00058551    0.00218693   -0.00006941
     atom   14 type  1   force =     0.00032732    0.00039959   -0.00114390
     atom   15 type  2   force =     0.00029783    0.00039538    0.00015646
     atom   16 type  2   force =    -0.00054588    0.00143927    0.00000473
     atom   17 type  2   force =     0.00006559    0.00016184   -0.00087398
     atom   18 type  2   force =    -0.00029783   -0.00039538   -0.00015646
     atom   19 type  2   force =     0.00052045   -0.00128744   -0.00051859
     atom   20 type  2   force =     0.00023594   -0.00006650   -0.00056826
     atom   21 type  2   force =    -0.00052045    0.00128744    0.00051859
     atom   22 type  2   force =    -0.00023594    0.00006650    0.00056826
     atom   23 type  2   force =     0.00054588   -0.00143927   -0.00000473
     atom   24 type  2   force =    -0.00006559   -0.00016184    0.00087398
     atom   25 type  1   force =    -0.00099858   -0.00277557   -0.00007799
     atom   26 type  1   force =     0.00170460    0.00192687   -0.00085435
     atom   27 type  1   force =    -0.00056422   -0.00229307    0.00008368
     atom   28 type  1   force =    -0.00040515   -0.00036013    0.00092176
     atom   29 type  1   force =     0.00099858    0.00277557    0.00007799
     atom   30 type  1   force =    -0.00130559   -0.00216404   -0.00074080
     atom   31 type  1   force =     0.00058551    0.00218693    0.00006941
     atom   32 type  1   force =    -0.00032732    0.00039959    0.00114390
     atom   33 type  1   force =     0.00130559    0.00216404    0.00074080
     atom   34 type  1   force =    -0.00058551   -0.00218693   -0.00006941
     atom   35 type  1   force =     0.00032732   -0.00039959   -0.00114390
     atom   36 type  1   force =    -0.00170460   -0.00192687    0.00085435
     atom   37 type  1   force =     0.00056422    0.00229307   -0.00008368
     atom   38 type  1   force =     0.00040515    0.00036013   -0.00092176
     atom   39 type  2   force =    -0.00029783    0.00039538   -0.00015646
     atom   40 type  2   force =     0.00052045    0.00128744   -0.00051859
     atom   41 type  2   force =     0.00023594    0.00006650   -0.00056826
     atom   42 type  2   force =     0.00029783   -0.00039538    0.00015646
     atom   43 type  2   force =    -0.00054588   -0.00143927    0.00000473
     atom   44 type  2   force =     0.00006559   -0.00016184   -0.00087398
     atom   45 type  2   force =     0.00054588    0.00143927   -0.00000473
     atom   46 type  2   force =    -0.00006559    0.00016184    0.00087398
     atom   47 type  2   force =    -0.00052045   -0.00128744    0.00051859
     atom   48 type  2   force =    -0.00023594   -0.00006650    0.00056826
     The non-local contrib.  to forces
     atom    1 type  1   force =     0.01991705   -0.04280143    0.00005744
     atom    2 type  1   force =     0.01486923   -0.03244387   -0.01664341
     atom    3 type  1   force =     0.01900020   -0.03940245    0.04773025
     atom    4 type  1   force =     0.01799196   -0.03302333   -0.02908305
     atom    5 type  1   force =    -0.01991705    0.04280143   -0.00005744
     atom    6 type  1   force =    -0.01469833    0.03250906   -0.01657102
     atom    7 type  1   force =    -0.01810528    0.04004338    0.04766957
     atom    8 type  1   force =    -0.01707732    0.03459733   -0.02809516
     atom    9 type  1   force =     0.01469833   -0.03250906    0.01657102
     atom   10 type  1   force =     0.01810528   -0.04004338   -0.04766957
     atom   11 type  1   force =     0.01707732   -0.03459733    0.02809516
     atom   12 type  1   force =    -0.01486923    0.03244387    0.01664341
     atom   13 type  1   force =    -0.01900020    0.03940245   -0.04773025
     atom   14 type  1   force =    -0.01799196    0.03302333    0.02908305
     atom   15 type  2   force =     0.03549613   -0.06929382    0.00006107
     atom   16 type  2   force =     0.03591699   -0.06978203    0.00055324
     atom   17 type  2   force =     0.01840067   -0.03425324    0.06684529
     atom   18 type  2   force =    -0.03549613    0.06929382   -0.00006107
     atom   19 type  2   force =    -0.03574490    0.06982948    0.00037402
     atom   20 type  2   force =    -0.01727980    0.03420368    0.06708723
     atom   21 type  2   force =     0.03574490   -0.06982948   -0.00037402
     atom   22 type  2   force =     0.01727980   -0.03420368   -0.06708723
     atom   23 type  2   force =    -0.03591699    0.06978203   -0.00055324
     atom   24 type  2   force =    -0.01840067    0.03425324   -0.06684529
     atom   25 type  1   force =    -0.01991705   -0.04280143   -0.00005744
     atom   26 type  1   force =    -0.01469833   -0.03250906   -0.01657102
     atom   27 type  1   force =    -0.01810528   -0.04004338    0.04766957
     atom   28 type  1   force =    -0.01707732   -0.03459733   -0.02809516
     atom   29 type  1   force =     0.01991705    0.04280143    0.00005744
     atom   30 type  1   force =     0.01486923    0.03244387   -0.01664341
     atom   31 type  1   force =     0.01900020    0.03940245    0.04773025
     atom   32 type  1   force =     0.01799196    0.03302333   -0.02908305
     atom   33 type  1   force =    -0.01486923   -0.03244387    0.01664341
     atom   34 type  1   force =    -0.01900020   -0.03940245   -0.04773025
     atom   35 type  1   force =    -0.01799196   -0.03302333    0.02908305
     atom   36 type  1   force =     0.01469833    0.03250906    0.01657102
     atom   37 type  1   force =     0.01810528    0.04004338   -0.04766957
     atom   38 type  1   force =     0.01707732    0.03459733    0.02809516
     atom   39 type  2   force =    -0.03549613   -0.06929382   -0.00006107
     atom   40 type  2   force =    -0.03574490   -0.06982948    0.00037402
     atom   41 type  2   force =    -0.01727980   -0.03420368    0.06708723
     atom   42 type  2   force =     0.03549613    0.06929382    0.00006107
     atom   43 type  2   force =     0.03591699    0.06978203    0.00055324
     atom   44 type  2   force =     0.01840067    0.03425324    0.06684529
     atom   45 type  2   force =    -0.03591699   -0.06978203   -0.00055324
     atom   46 type  2   force =    -0.01840067   -0.03425324   -0.06684529
     atom   47 type  2   force =     0.03574490    0.06982948   -0.00037402
     atom   48 type  2   force =     0.01727980    0.03420368   -0.06708723
     The ionic contribution  to forces
     atom    1 type  1   force =    -1.66370656    3.78231234    0.00548101
     atom    2 type  1   force =    -0.61167975    1.43961131   -1.83980650
     atom    3 type  1   force =    -1.67501538    3.82947736   -3.32697041
     atom    4 type  1   force =    -0.74323755    1.85382892   -6.45655058
     atom    5 type  1   force =     1.66370656   -3.78231234   -0.00548101
     atom    6 type  1   force =     0.61960468   -1.44366646   -1.85053920
     atom    7 type  1   force =     1.69091764   -3.78805692   -3.34629957
     atom    8 type  1   force =     0.96636815   -1.78888341   -6.53835551
     atom    9 type  1   force =    -0.61960468    1.44366646    1.85053920
     atom   10 type  1   force =    -1.69091764    3.78805692    3.34629957
     atom   11 type  1   force =    -0.96636815    1.78888341    6.53835551
     atom   12 type  1   force =     0.61167975   -1.43961131    1.83980650
     atom   13 type  1   force =     1.67501538   -3.82947736    3.32697041
     atom   14 type  1   force =     0.74323755   -1.85382892    6.45655058
     atom   15 type  2   force =    -0.76342608    1.91883297   -0.00062378
     atom   16 type  2   force =    -0.76191581    1.90924478   -0.87672279
     atom   17 type  2   force =    -0.48785279    1.13434858   -2.23173721
     atom   18 type  2   force =     0.76342608   -1.91883297    0.00062378
     atom   19 type  2   force =     0.75329332   -1.89888611   -0.85960103
     atom   20 type  2   force =     0.51415882   -1.00949257   -2.27179194
     atom   21 type  2   force =    -0.75329332    1.89888611    0.85960103
     atom   22 type  2   force =    -0.51415882    1.00949257    2.27179194
     atom   23 type  2   force =     0.76191581   -1.90924478    0.87672279
     atom   24 type  2   force =     0.48785279   -1.13434858    2.23173721
     atom   25 type  1   force =     1.66370656    3.78231234   -0.00548101
     atom   26 type  1   force =     0.61960468    1.44366646   -1.85053920
     atom   27 type  1   force =     1.69091764    3.78805692   -3.34629957
     atom   28 type  1   force =     0.96636815    1.78888341   -6.53835552
     atom   29 type  1   force =    -1.66370656   -3.78231234    0.00548100
     atom   30 type  1   force =    -0.61167975   -1.43961131   -1.83980650
     atom   31 type  1   force =    -1.67501538   -3.82947736   -3.32697041
     atom   32 type  1   force =    -0.74323755   -1.85382892   -6.45655058
     atom   33 type  1   force =     0.61167976    1.43961131    1.83980650
     atom   34 type  1   force =     1.67501538    3.82947736    3.32697041
     atom   35 type  1   force =     0.74323756    1.85382892    6.45655057
     atom   36 type  1   force =    -0.61960469   -1.44366647    1.85053921
     atom   37 type  1   force =    -1.69091764   -3.78805692    3.34629956
     atom   38 type  1   force =    -0.96636815   -1.78888342    6.53835552
     atom   39 type  2   force =     0.76342608    1.91883298    0.00062378
     atom   40 type  2   force =     0.75329332    1.89888611   -0.85960103
     atom   41 type  2   force =     0.51415882    1.00949257   -2.27179194
     atom   42 type  2   force =    -0.76342608   -1.91883297   -0.00062378
     atom   43 type  2   force =    -0.76191581   -1.90924478   -0.87672280
     atom   44 type  2   force =    -0.48785279   -1.13434858   -2.23173721
     atom   45 type  2   force =     0.76191582    1.90924479    0.87672279
     atom   46 type  2   force =     0.48785279    1.13434859    2.23173721
     atom   47 type  2   force =    -0.75329331   -1.89888610    0.85960103
     atom   48 type  2   force =    -0.51415882   -1.00949257    2.27179194
     The local contribution  to forces
     atom    1 type  1   force =     1.64469929   -3.74235745   -0.00547331
     atom    2 type  1   force =     0.59647096   -1.40683122    1.85470067
     atom    3 type  1   force =     1.65644516   -3.79209562    3.28153794
     atom    4 type  1   force =     0.72560950   -1.82241822    6.48443376
     atom    5 type  1   force =    -1.64469929    3.74235745    0.00547331
     atom    6 type  1   force =    -0.60414898    1.41107354    1.86525659
     atom    7 type  1   force =    -1.67318050    3.75021468    3.30089890
     atom    8 type  1   force =    -0.95026467    1.75589511    6.56509336
     atom    9 type  1   force =     0.60414898   -1.41107354   -1.86525660
     atom   10 type  1   force =     1.67318050   -3.75021468   -3.30089890
     atom   11 type  1   force =     0.95026467   -1.75589511   -6.56509337
     atom   12 type  1   force =    -0.59647096    1.40683122   -1.85470068
     atom   13 type  1   force =    -1.65644516    3.79209562   -3.28153795
     atom   14 type  1   force =    -0.72560950    1.82241822   -6.48443376
     atom   15 type  2   force =     0.72850863   -1.84974977    0.00071577
     atom   16 type  2   force =     0.72570316   -1.83854170    0.87605483
     atom   17 type  2   force =     0.46974135   -1.10012622    2.16419308
     atom   18 type  2   force =    -0.72850863    1.84974977   -0.00071577
     atom   19 type  2   force =    -0.71728831    1.82829916    0.85863723
     atom   20 type  2   force =    -0.49673578    0.97542527    2.20436634
     atom   21 type  2   force =     0.71728831   -1.82829916   -0.85863723
     atom   22 type  2   force =     0.49673578   -0.97542527   -2.20436634
     atom   23 type  2   force =    -0.72570316    1.83854170   -0.87605483
     atom   24 type  2   force =    -0.46974135    1.10012622   -2.16419308
     atom   25 type  1   force =    -1.64469929   -3.74235746    0.00547331
     atom   26 type  1   force =    -0.60414897   -1.41107355    1.86525660
     atom   27 type  1   force =    -1.67318050   -3.75021469    3.30089890
     atom   28 type  1   force =    -0.95026467   -1.75589511    6.56509336
     atom   29 type  1   force =     1.64469930    3.74235744   -0.00547331
     atom   30 type  1   force =     0.59647097    1.40683122    1.85470067
     atom   31 type  1   force =     1.65644516    3.79209561    3.28153794
     atom   32 type  1   force =     0.72560951    1.82241821    6.48443375
     atom   33 type  1   force =    -0.59647097   -1.40683122   -1.85470067
     atom   34 type  1   force =    -1.65644515   -3.79209562   -3.28153794
     atom   35 type  1   force =    -0.72560951   -1.82241821   -6.48443376
     atom   36 type  1   force =     0.60414898    1.41107354   -1.86525659
     atom   37 type  1   force =     1.67318051    3.75021467   -3.30089891
     atom   38 type  1   force =     0.95026467    1.75589510   -6.56509336
     atom   39 type  2   force =    -0.72850863   -1.84974977   -0.00071577
     atom   40 type  2   force =    -0.71728831   -1.82829916    0.85863723
     atom   41 type  2   force =    -0.49673578   -0.97542527    2.20436634
     atom   42 type  2   force =     0.72850863    1.84974977    0.00071576
     atom   43 type  2   force =     0.72570316    1.83854170    0.87605483
     atom   44 type  2   force =     0.46974135    1.10012622    2.16419308
     atom   45 type  2   force =    -0.72570316   -1.83854170   -0.87605483
     atom   46 type  2   force =    -0.46974135   -1.10012622   -2.16419308
     atom   47 type  2   force =     0.71728831    1.82829916   -0.85863723
     atom   48 type  2   force =     0.49673578    0.97542527   -2.20436634
     The core correction contribution to forces
     atom    1 type  1   force =     0.00046005   -0.00095522    0.00000027
     atom    2 type  1   force =    -0.00054614    0.00094876    0.00088160
     atom    3 type  1   force =     0.00051646   -0.00111605   -0.00212699
     atom    4 type  1   force =    -0.00041363    0.00063464    0.00296133
     atom    5 type  1   force =    -0.00046005    0.00095522   -0.00000027
     atom    6 type  1   force =     0.00052480   -0.00093766    0.00088991
     atom    7 type  1   force =    -0.00055206    0.00109382   -0.00211087
     atom    8 type  1   force =     0.00029920   -0.00066604    0.00294328
     atom    9 type  1   force =    -0.00052480    0.00093766   -0.00088990
     atom   10 type  1   force =     0.00055206   -0.00109382    0.00211087
     atom   11 type  1   force =    -0.00029920    0.00066604   -0.00294328
     atom   12 type  1   force =     0.00054614   -0.00094876   -0.00088160
     atom   13 type  1   force =    -0.00051646    0.00111605    0.00212699
     atom   14 type  1   force =     0.00041363   -0.00063464   -0.00296133
     atom   15 type  2   force =     0.00000000    0.00000000    0.00000000
     atom   16 type  2   force =     0.00000000    0.00000000    0.00000000
     atom   17 type  2   force =     0.00000000    0.00000000    0.00000000
     atom   18 type  2   force =     0.00000000    0.00000000    0.00000000
     atom   19 type  2   force =     0.00000000    0.00000000    0.00000000
     atom   20 type  2   force =     0.00000000    0.00000000    0.00000000
     atom   21 type  2   force =     0.00000000    0.00000000    0.00000000
     atom   22 type  2   force =     0.00000000    0.00000000    0.00000000
     atom   23 type  2   force =     0.00000000    0.00000000    0.00000000
     atom   24 type  2   force =     0.00000000    0.00000000    0.00000000
     atom   25 type  1   force =    -0.00046005   -0.00095522   -0.00000027
     atom   26 type  1   force =     0.00052480    0.00093766    0.00088990
     atom   27 type  1   force =    -0.00055206   -0.00109382   -0.00211087
     atom   28 type  1   force =     0.00029920    0.00066604    0.00294328
     atom   29 type  1   force =     0.00046005    0.00095522    0.00000027
     atom   30 type  1   force =    -0.00054614   -0.00094876    0.00088160
     atom   31 type  1   force =     0.00051646    0.00111605   -0.00212699
     atom   32 type  1   force =    -0.00041363   -0.00063464    0.00296133
     atom   33 type  1   force =     0.00054614    0.00094876   -0.00088160
     atom   34 type  1   force =    -0.00051646   -0.00111605    0.00212699
     atom   35 type  1   force =     0.00041363    0.00063464   -0.00296133
     atom   36 type  1   force =    -0.00052480   -0.00093766   -0.00088991
     atom   37 type  1   force =     0.00055206    0.00109382    0.00211087
     atom   38 type  1   force =    -0.00029920   -0.00066604   -0.00294328
     atom   39 type  2   force =     0.00000000    0.00000000    0.00000000
     atom   40 type  2   force =     0.00000000    0.00000000    0.00000000
     atom   41 type  2   force =     0.00000000    0.00000000    0.00000000
     atom   42 type  2   force =     0.00000000    0.00000000    0.00000000
     atom   43 type  2   force =     0.00000000    0.00000000    0.00000000
     atom   44 type  2   force =     0.00000000    0.00000000    0.00000000
     atom   45 type  2   force =     0.00000000    0.00000000    0.00000000
     atom   46 type  2   force =     0.00000000    0.00000000    0.00000000
     atom   47 type  2   force =     0.00000000    0.00000000    0.00000000
     atom   48 type  2   force =     0.00000000    0.00000000    0.00000000
     The Hubbard contrib.    to forces
     atom    1 type  1   force =     0.00000000    0.00000000    0.00000000
     atom    2 type  1   force =     0.00000000    0.00000000    0.00000000
     atom    3 type  1   force =     0.00000000    0.00000000    0.00000000
     atom    4 type  1   force =     0.00000000    0.00000000    0.00000000
     atom    5 type  1   force =     0.00000000    0.00000000    0.00000000
     atom    6 type  1   force =     0.00000000    0.00000000    0.00000000
     atom    7 type  1   force =     0.00000000    0.00000000    0.00000000
     atom    8 type  1   force =     0.00000000    0.00000000    0.00000000
     atom    9 type  1   force =     0.00000000    0.00000000    0.00000000
     atom   10 type  1   force =     0.00000000    0.00000000    0.00000000
     atom   11 type  1   force =     0.00000000    0.00000000    0.00000000
     atom   12 type  1   force =     0.00000000    0.00000000    0.00000000
     atom   13 type  1   force =     0.00000000    0.00000000    0.00000000
     atom   14 type  1   force =     0.00000000    0.00000000    0.00000000
     atom   15 type  2   force =     0.00000000    0.00000000    0.00000000
     atom   16 type  2   force =     0.00000000    0.00000000    0.00000000
     atom   17 type  2   force =     0.00000000    0.00000000    0.00000000
     atom   18 type  2   force =     0.00000000    0.00000000    0.00000000
     atom   19 type  2   force =     0.00000000    0.00000000    0.00000000
     atom   20 type  2   force =     0.00000000    0.00000000    0.00000000
     atom   21 type  2   force =     0.00000000    0.00000000    0.00000000
     atom   22 type  2   force =     0.00000000    0.00000000    0.00000000
     atom   23 type  2   force =     0.00000000    0.00000000    0.00000000
     atom   24 type  2   force =     0.00000000    0.00000000    0.00000000
     atom   25 type  1   force =     0.00000000    0.00000000    0.00000000
     atom   26 type  1   force =     0.00000000    0.00000000    0.00000000
     atom   27 type  1   force =     0.00000000    0.00000000    0.00000000
     atom   28 type  1   force =     0.00000000    0.00000000    0.00000000
     atom   29 type  1   force =     0.00000000    0.00000000    0.00000000
     atom   30 type  1   force =     0.00000000    0.00000000    0.00000000
     atom   31 type  1   force =     0.00000000    0.00000000    0.00000000
     atom   32 type  1   force =     0.00000000    0.00000000    0.00000000
     atom   33 type  1   force =     0.00000000    0.00000000    0.00000000
     atom   34 type  1   force =     0.00000000    0.00000000    0.00000000
     atom   35 type  1   force =     0.00000000    0.00000000    0.00000000
     atom   36 type  1   force =     0.00000000    0.00000000    0.00000000
     atom   37 type  1   force =     0.00000000    0.00000000    0.00000000
     atom   38 type  1   force =     0.00000000    0.00000000    0.00000000
     atom   39 type  2   force =     0.00000000    0.00000000    0.00000000
     atom   40 type  2   force =     0.00000000    0.00000000    0.00000000
     atom   41 type  2   force =     0.00000000    0.00000000    0.00000000
     atom   42 type  2   force =     0.00000000    0.00000000    0.00000000
     atom   43 type  2   force =     0.00000000    0.00000000    0.00000000
     atom   44 type  2   force =     0.00000000    0.00000000    0.00000000
     atom   45 type  2   force =     0.00000000    0.00000000    0.00000000
     atom   46 type  2   force =     0.00000000    0.00000000    0.00000000
     atom   47 type  2   force =     0.00000000    0.00000000    0.00000000
     atom   48 type  2   force =     0.00000000    0.00000000    0.00000000
     The SCF correction term to forces
     atom    1 type  1   force =    -0.00000198    0.00000306    0.00001303
     atom    2 type  1   force =     0.00000556   -0.00001574   -0.00001217
     atom    3 type  1   force =     0.00000326   -0.00001028   -0.00003844
     atom    4 type  1   force =     0.00000610   -0.00001895   -0.00003597
     atom    5 type  1   force =     0.00000198   -0.00000306   -0.00001303
     atom    6 type  1   force =     0.00000334   -0.00000878   -0.00003168
     atom    7 type  1   force =    -0.00000099    0.00000299   -0.00002299
     atom    8 type  1   force =    -0.00000658    0.00000849   -0.00001373
     atom    9 type  1   force =    -0.00000334    0.00000878    0.00003168
     atom   10 type  1   force =     0.00000099   -0.00000299    0.00002299
     atom   11 type  1   force =     0.00000658   -0.00000849    0.00001373
     atom   12 type  1   force =    -0.00000556    0.00001574    0.00001217
     atom   13 type  1   force =    -0.00000326    0.00001028    0.00003844
     atom   14 type  1   force =    -0.00000610    0.00001895    0.00003597
     atom   15 type  2   force =    -0.00000085    0.00000205    0.00000158
     atom   16 type  2   force =    -0.00000291    0.00000614   -0.00000659
     atom   17 type  2   force =     0.00000129   -0.00000399    0.00000009
     atom   18 type  2   force =     0.00000085   -0.00000205   -0.00000158
     atom   19 type  2   force =    -0.00000045    0.00000350   -0.00000572
     atom   20 type  2   force =    -0.00000101    0.00000165   -0.00000016
     atom   21 type  2   force =     0.00000045   -0.00000350    0.00000572
     atom   22 type  2   force =     0.00000101   -0.00000165    0.00000016
     atom   23 type  2   force =     0.00000291   -0.00000614    0.00000659
     atom   24 type  2   force =    -0.00000129    0.00000399   -0.00000009
     atom   25 type  1   force =     0.00000198    0.00000306   -0.00001303
     atom   26 type  1   force =     0.00000334    0.00000878   -0.00003168
     atom   27 type  1   force =    -0.00000099   -0.00000299   -0.00002299
     atom   28 type  1   force =    -0.00000658   -0.00000849   -0.00001373
     atom   29 type  1   force =    -0.00000198   -0.00000306    0.00001303
     atom   30 type  1   force =     0.00000556    0.00001574   -0.00001217
     atom   31 type  1   force =     0.00000326    0.00001028   -0.00003844
     atom   32 type  1   force =     0.00000610    0.00001895   -0.00003597
     atom   33 type  1   force =    -0.00000556   -0.00001574    0.00001217
     atom   34 type  1   force =    -0.00000326   -0.00001028    0.00003844
     atom   35 type  1   force =    -0.00000610   -0.00001895    0.00003597
     atom   36 type  1   force =    -0.00000334   -0.00000878    0.00003168
     atom   37 type  1   force =     0.00000099    0.00000299    0.00002299
     atom   38 type  1   force =     0.00000658    0.00000849    0.00001373
     atom   39 type  2   force =     0.00000085    0.00000205   -0.00000158
     atom   40 type  2   force =    -0.00000045   -0.00000350   -0.00000572
     atom   41 type  2   force =    -0.00000101   -0.00000165   -0.00000016
     atom   42 type  2   force =    -0.00000085   -0.00000205    0.00000158
     atom   43 type  2   force =    -0.00000291   -0.00000614   -0.00000659
     atom   44 type  2   force =     0.00000129    0.00000399    0.00000009
     atom   45 type  2   force =     0.00000291    0.00000614    0.00000659
     atom   46 type  2   force =    -0.00000129   -0.00000399   -0.00000009
     atom   47 type  2   force =     0.00000045    0.00000350    0.00000572
     atom   48 type  2   force =     0.00000101    0.00000165    0.00000016

     DFT-D3 dispersion contribution to forces:
     atom    1 type  1   force =    -0.00036928    0.00102313   -0.00000045
     atom    2 type  1   force =    -0.00042545    0.00089481    0.00013901
     atom    3 type  1   force =    -0.00036418    0.00096009   -0.00006294
     atom    4 type  1   force =    -0.00028370    0.00059735   -0.00058158
     atom    5 type  1   force =     0.00036928   -0.00102313    0.00000045
     atom    6 type  1   force =     0.00041909   -0.00089658    0.00014105
     atom    7 type  1   force =     0.00035697   -0.00100489   -0.00005136
     atom    8 type  1   force =     0.00027608   -0.00059135   -0.00065048
     atom    9 type  1   force =    -0.00041909    0.00089658   -0.00014105
     atom   10 type  1   force =    -0.00035697    0.00100489    0.00005136
     atom   11 type  1   force =    -0.00027608    0.00059135    0.00065048
     atom   12 type  1   force =     0.00042545   -0.00089481   -0.00013901
     atom   13 type  1   force =     0.00036418   -0.00096009    0.00006294
     atom   14 type  1   force =     0.00028370   -0.00059735    0.00058158
     atom   15 type  2   force =    -0.00027999    0.00060394    0.00000182
     atom   16 type  2   force =    -0.00024731    0.00051208    0.00012604
     atom   17 type  2   force =    -0.00022493    0.00019671   -0.00017523
     atom   18 type  2   force =     0.00027999   -0.00060394   -0.00000182
     atom   19 type  2   force =     0.00026079   -0.00053348    0.00007691
     atom   20 type  2   force =     0.00009372   -0.00020452   -0.00022973
     atom   21 type  2   force =    -0.00026079    0.00053348   -0.00007691
     atom   22 type  2   force =    -0.00009372    0.00020452    0.00022973
     atom   23 type  2   force =     0.00024731   -0.00051208   -0.00012604
     atom   24 type  2   force =     0.00022493   -0.00019671    0.00017523
     atom   25 type  1   force =     0.00036928    0.00102313    0.00000045
     atom   26 type  1   force =     0.00041909    0.00089658    0.00014105
     atom   27 type  1   force =     0.00035697    0.00100489   -0.00005136
     atom   28 type  1   force =     0.00027608    0.00059135   -0.00065048
     atom   29 type  1   force =    -0.00036928   -0.00102313   -0.00000045
     atom   30 type  1   force =    -0.00042545   -0.00089481    0.00013901
     atom   31 type  1   force =    -0.00036418   -0.00096009   -0.00006294
     atom   32 type  1   force =    -0.00028370   -0.00059735   -0.00058158
     atom   33 type  1   force =     0.00042545    0.00089481   -0.00013901
     atom   34 type  1   force =     0.00036418    0.00096009    0.00006294
     atom   35 type  1   force =     0.00028370    0.00059735    0.00058158
     atom   36 type  1   force =    -0.00041909   -0.00089658   -0.00014105
     atom   37 type  1   force =    -0.00035697   -0.00100489    0.00005136
     atom   38 type  1   force =    -0.00027608   -0.00059135    0.00065048
     atom   39 type  2   force =     0.00027999    0.00060394   -0.00000182
     atom   40 type  2   force =     0.00026079    0.00053348    0.00007691
     atom   41 type  2   force =     0.00009372    0.00020452   -0.00022973
     atom   42 type  2   force =    -0.00027999   -0.00060394    0.00000182
     atom   43 type  2   force =    -0.00024731   -0.00051208    0.00012604
     atom   44 type  2   force =    -0.00022493   -0.00019671   -0.00017523
     atom   45 type  2   force =     0.00024731    0.00051208   -0.00012604
     atom   46 type  2   force =     0.00022493    0.00019671    0.00017523
     atom   47 type  2   force =    -0.00026079   -0.00053348   -0.00007691
     atom   48 type  2   force =    -0.00009372   -0.00020452    0.00022973

     Total force =     0.013029     Total SCF correction =     0.000155

     DFT-D3 dispersion Force =     0.005786


     Computing stress (Cartesian axis) and pressure

          total   stress  (Ry/bohr**3)                   (kbar)     P=    0.25
   0.00001123   0.00000000   0.00000011          1.65      0.00      0.02
   0.00000000  -0.00000080   0.00000000          0.00     -0.12      0.00
   0.00000011   0.00000000  -0.00000535          0.02      0.00     -0.79

     kinetic stress (kbar)   7430.85      0.00     -0.72
                                0.00   6932.83      0.00
                               -0.72      0.00   6754.13

     local   stress (kbar)   -538.09     -0.00   -268.53
                               -0.00 -10223.01     -0.00
                             -268.53     -0.00 -11634.63

     nonloc. stress (kbar)   1093.58      0.00      0.05
                                0.00   1140.76      0.00
                                0.05      0.00   1172.30

     hartree stress (kbar)   1361.14     -0.00    118.45
                               -0.00   4121.63     -0.00
                              118.45     -0.00   3615.36

     exc-cor stress (kbar)   -368.15      0.00      0.09
                                0.00   -330.26      0.00
                                0.09      0.00   -313.50

     corecor stress (kbar)  -1452.55     -0.00     -0.02
                               -0.00  -1468.36     -0.00
                               -0.02     -0.00  -1476.23

     ewald   stress (kbar)  -7513.78      0.00    150.73
                                0.00   -164.76      0.00
                              150.73      0.00   1888.43

     hubbard stress (kbar)      0.00      0.00      0.00
                                0.00      0.00      0.00
                                0.00      0.00      0.00

     london  stress (kbar)      0.00      0.00      0.00
                                0.00      0.00      0.00
                                0.00      0.00      0.00

     DFT-D3  stress (kbar)    -11.35      0.00     -0.04
                                0.00     -8.95     -0.00
                               -0.04     -0.00     -6.65

     XDM     stress (kbar)      0.00      0.00      0.00
                                0.00      0.00      0.00
                                0.00      0.00      0.00

     dft-nl  stress (kbar)      0.00      0.00      0.00
                                0.00      0.00      0.00
                                0.00      0.00      0.00

     TS-vdW  stress (kbar)      0.00      0.00      0.00
                                0.00      0.00      0.00
                                0.00      0.00      0.00



     BFGS Geometry Optimization

     number of scf cycles    =   1
     number of bfgs steps    =   0

     enthalpy new            =    -371.5335535483 Ry

     new trust radius        =       0.0031516002 bohr
     new conv_thr            =       0.0000000100 Ry

     new unit-cell volume =   3153.98326 a.u.^3 (   467.37209 Ang^3 )
     density =      1.26650 g/cm^3

CELL_PARAMETERS (angstrom)
   7.471760711   0.000000000   0.003936399
   0.000000000   5.902754236   0.000000000
   2.041311307   0.000000000  10.598128785

ATOMIC_POSITIONS (angstrom)
C       -0.632628004   1.258313223   0.000657242
C       -0.324500579   0.647762165  -1.221387389
C       -0.634579639   1.257525811  -2.471795957
C       -0.322260089   0.635636836  -3.653819609
C        0.632628004  -1.258313223  -0.000657242
C        0.324214080  -0.647362114  -1.222498142
C        0.634164751  -1.255971098  -2.473866315
C        0.321245845  -0.632703174  -3.655685369
C       -0.324214080   0.647362114   1.222498142
C       -0.634164751   1.255971098   2.473866315
C       -0.321245845   0.632703174   3.655685369
C        0.324500579  -0.647762165   1.221387389
C        0.634579639  -1.257525811   2.471795957
C        0.322260089  -0.635636836   3.653819609
H       -1.129057720   2.231254502   0.000009768
H       -1.131852528   2.228228902  -2.472158651
H       -0.576069765   1.114260099  -4.599864539
H        1.129057720  -2.231254502  -0.000009768
H        1.129361842  -2.227853540  -2.472782261
H        0.563436018  -1.111622690  -4.604810088
H       -1.129361842   2.227853540   2.472782261
H       -0.563436018   1.111622690   4.604810088
H        1.131852528  -2.228228902   2.472158651
H        0.576069765  -1.114260099   4.599864539
C        4.368508360   4.209690342   0.001310957
C        4.060094435   3.598739233  -1.220529943
C        4.370045106   4.207348217  -2.471898116
C        4.057126201   3.584080292  -3.653717169
C        3.103252351   1.693063895   0.002625442
C        3.411379776   2.303614953  -1.219419189
C        3.101300716   1.693851307  -2.469827757
C        3.413620266   2.315740283  -3.651851408
C        4.060380935   3.599139283   1.223355588
C        4.370459994   4.208902930   2.473764156
C        4.058140445   3.587013953   3.655787808
C        3.411666275   2.304015004   1.224466341
C        3.101715604   1.695406020   2.475834515
C        3.414634510   2.318673945   3.657653568
H        4.864938075   5.182631620   0.001958431
H        4.865242197   5.179230658  -2.470814062
H        4.299316373   4.062999808  -4.602841888
H        2.606822636   0.720122616   0.001977968
H        2.604027827   0.723148217  -2.470190452
H        3.159810590   1.837117020  -4.597896339
H        4.867732884   5.179606020   2.474126850
H        4.311950121   4.065637216   4.601832739
H        2.606518513   0.723523578   2.474750462
H        3.172444337   1.839754429   4.606778288



     Writing output data file wm.save/
     NEW-OLD atomic charge density approx. for the potential

     Check: negative core charge=   -0.000002
     extrapolated charge  132.01669, renormalised to  132.00000

     total cpu time spent up to now is       38.1 secs

     Self-consistent Calculation

     iteration #  1     ecut=    64.00 Ry     beta= 0.70
     Davidson diagonalization with overlap
     ethr =  1.00E-06,  avg # of iterations =  2.3

     Threshold (ethr) on eigenvalues was too large:
     Diagonalizing with lowered threshold

     Davidson diagonalization with overlap
     ethr =  2.19E-08,  avg # of iterations =  4.0

     total cpu time spent up to now is       45.3 secs

     total energy              =    -371.53357382 Ry
     Harris-Foulkes estimate   =    -371.50300892 Ry
     estimated scf accuracy    <       0.00003264 Ry

     iteration #  2     ecut=    64.00 Ry     beta= 0.70
     Davidson diagonalization with overlap
     ethr =  2.47E-08,  avg # of iterations =  4.0

     total cpu time spent up to now is       46.7 secs

     total energy              =    -371.53356984 Ry
     Harris-Foulkes estimate   =    -371.53359149 Ry
     estimated scf accuracy    <       0.00004536 Ry

     iteration #  3     ecut=    64.00 Ry     beta= 0.70
     Davidson diagonalization with overlap
     ethr =  2.47E-08,  avg # of iterations =  4.0

     total cpu time spent up to now is       48.0 secs

     total energy              =    -371.53357985 Ry
     Harris-Foulkes estimate   =    -371.53358453 Ry
     estimated scf accuracy    <       0.00001226 Ry

     iteration #  4     ecut=    64.00 Ry     beta= 0.70
     Davidson diagonalization with overlap
     ethr =  9.29E-09,  avg # of iterations =  3.0

     total cpu time spent up to now is       49.1 secs

     total energy              =    -371.53358209 Ry
     Harris-Foulkes estimate   =    -371.53358260 Ry
     estimated scf accuracy    <       0.00000108 Ry

     iteration #  5     ecut=    64.00 Ry     beta= 0.70
     Davidson diagonalization with overlap
     ethr =  8.15E-10,  avg # of iterations =  3.5

     total cpu time spent up to now is       50.4 secs

     total energy              =    -371.53358233 Ry
     Harris-Foulkes estimate   =    -371.53358234 Ry
     estimated scf accuracy    <       0.00000003 Ry

     iteration #  6     ecut=    64.00 Ry     beta= 0.70
     Davidson diagonalization with overlap
     ethr =  2.33E-11,  avg # of iterations =  3.0

     total cpu time spent up to now is       51.6 secs

     End of self-consistent calculation

          k = 0.1665 0.2109 0.1441 ( 27248 PWs)   bands (ev):

   -15.6559 -15.5370 -14.8504 -14.7466 -13.5914 -13.4826 -13.0314 -13.0173
   -12.2024 -12.1842 -11.9370 -11.8998 -10.9452 -10.9389  -9.6384  -9.5204
    -8.8191  -8.8101  -8.4736  -8.4007  -8.1550  -8.1492  -6.8687  -6.8049
    -6.5683  -6.4951  -6.0586  -5.9958  -5.0463  -4.9096  -4.8862  -4.7963
    -4.7250  -4.5829  -4.5228  -4.5140  -3.9882  -3.8679  -3.6362  -3.5850
    -3.5446  -3.4955  -3.4735  -3.2269  -3.0460  -3.0174  -2.8165  -2.7957
    -2.6539  -2.3819  -1.9766  -1.7788  -1.6901  -1.6765  -1.5878  -1.3702
    -1.3440  -1.1108  -1.0255  -0.8894  -0.3721   0.0316   0.0884   0.2811
     1.0832   1.5697

     occupation numbers 
     1.0000   1.0000   1.0000   1.0000   1.0000   1.0000   1.0000   1.0000
     1.0000   1.0000   1.0000   1.0000   1.0000   1.0000   1.0000   1.0000
     1.0000   1.0000   1.0000   1.0000   1.0000   1.0000   1.0000   1.0000
     1.0000   1.0000   1.0000   1.0000   1.0000   1.0000   1.0000   1.0000
     1.0000   1.0000   1.0000   1.0000   1.0000   1.0000   1.0000   1.0000
     1.0000   1.0000   1.0000   1.0000   1.0000   1.0000   1.0000   1.0000
     1.0000   1.0000   1.0000   1.0000   1.0000   1.0000   1.0000   1.0000
     1.0000   1.0000   1.0000   1.0000   1.0000   1.0000   1.0000   1.0000
     1.0000   1.0000

          k = 0.1667 0.2109-0.2083 ( 27248 PWs)   bands (ev):

   -15.6547 -15.5382 -14.8555 -14.7414 -13.5794 -13.4948 -13.0323 -13.0165
   -12.1987 -12.1879 -11.9570 -11.8802 -10.9537 -10.9303  -9.6059  -9.5520
    -8.8339  -8.7948  -8.4734  -8.4012  -8.1599  -8.1470  -6.8612  -6.8123
    -6.5684  -6.4902  -6.0820  -5.9780  -5.0092  -4.9537  -4.8824  -4.8013
    -4.7191  -4.5477  -4.5415  -4.5222  -3.9687  -3.8898  -3.6287  -3.5828
    -3.5444  -3.5272  -3.4417  -3.2301  -3.0657  -2.9973  -2.8304  -2.7930
    -2.6750  -2.3752  -1.9382  -1.7910  -1.6887  -1.6601  -1.6104  -1.3767
    -1.3258  -1.1243  -1.0290  -0.8888  -0.3746   0.0263   0.0921   0.2863
     1.0922   1.5624

     occupation numbers 
     1.0000   1.0000   1.0000   1.0000   1.0000   1.0000   1.0000   1.0000
     1.0000   1.0000   1.0000   1.0000   1.0000   1.0000   1.0000   1.0000
     1.0000   1.0000   1.0000   1.0000   1.0000   1.0000   1.0000   1.0000
     1.0000   1.0000   1.0000   1.0000   1.0000   1.0000   1.0000   1.0000
     1.0000   1.0000   1.0000   1.0000   1.0000   1.0000   1.0000   1.0000
     1.0000   1.0000   1.0000   1.0000   1.0000   1.0000   1.0000   1.0000
     1.0000   1.0000   1.0000   1.0000   1.0000   1.0000   1.0000   1.0000
     1.0000   1.0000   1.0000   1.0000   1.0000   1.0000   1.0000   1.0000
     1.0000   1.0000

          k = 0.1665-0.6327 0.1441 ( 27280 PWs)   bands (ev):

   -15.5771 -15.5771 -14.7808 -14.7808 -13.5217 -13.5217 -13.0913 -13.0913
   -12.2560 -12.2560 -11.9121 -11.9121 -10.9996 -10.9996  -9.5540  -9.5540
    -8.8358  -8.8358  -8.2807  -8.2807  -8.0532  -8.0532  -6.8826  -6.8826
    -6.4550  -6.4550  -5.9028  -5.9028  -5.0227  -5.0227  -4.8557  -4.8557
    -4.7423  -4.7423  -4.5227  -4.5227  -4.0217  -4.0217  -3.7103  -3.7103
    -3.6560  -3.6560  -3.4829  -3.4829  -2.9627  -2.9627  -2.8018  -2.8018
    -2.7216  -2.7216  -1.7311  -1.7311  -1.6429  -1.6429  -1.3106  -1.3106
    -1.2592  -1.2592  -0.8467  -0.8467   0.0612   0.0612   0.1364   0.1364
     1.5302   1.5302

     occupation numbers 
     1.0000   1.0000   1.0000   1.0000   1.0000   1.0000   1.0000   1.0000
     1.0000   1.0000   1.0000   1.0000   1.0000   1.0000   1.0000   1.0000
     1.0000   1.0000   1.0000   1.0000   1.0000   1.0000   1.0000   1.0000
     1.0000   1.0000   1.0000   1.0000   1.0000   1.0000   1.0000   1.0000
     1.0000   1.0000   1.0000   1.0000   1.0000   1.0000   1.0000   1.0000
     1.0000   1.0000   1.0000   1.0000   1.0000   1.0000   1.0000   1.0000
     1.0000   1.0000   1.0000   1.0000   1.0000   1.0000   1.0000   1.0000
     1.0000   1.0000   1.0000   1.0000   1.0000   1.0000   1.0000   1.0000
     1.0000   1.0000

          k = 0.1667-0.6327-0.2083 ( 27304 PWs)   bands (ev):

   -15.5770 -15.5770 -14.7810 -14.7810 -13.5212 -13.5212 -13.0914 -13.0914
   -12.2555 -12.2555 -11.9128 -11.9128 -11.0008 -11.0008  -9.5525  -9.5525
    -8.8347  -8.8347  -8.2806  -8.2806  -8.0533  -8.0533  -6.8825  -6.8825
    -6.4608  -6.4608  -5.9033  -5.9033  -5.0188  -5.0188  -4.8568  -4.8568
    -4.7385  -4.7385  -4.5245  -4.5245  -4.0101  -4.0101  -3.7182  -3.7182
    -3.6578  -3.6578  -3.4803  -3.4803  -2.9686  -2.9686  -2.7932  -2.7932
    -2.7311  -2.7311  -1.7356  -1.7356  -1.6423  -1.6423  -1.3139  -1.3139
    -1.2543  -1.2543  -0.8410  -0.8410   0.0594   0.0594   0.1378   0.1378
     1.5322   1.5322

     occupation numbers 
     1.0000   1.0000   1.0000   1.0000   1.0000   1.0000   1.0000   1.0000
     1.0000   1.0000   1.0000   1.0000   1.0000   1.0000   1.0000   1.0000
     1.0000   1.0000   1.0000   1.0000   1.0000   1.0000   1.0000   1.0000
     1.0000   1.0000   1.0000   1.0000   1.0000   1.0000   1.0000   1.0000
     1.0000   1.0000   1.0000   1.0000   1.0000   1.0000   1.0000   1.0000
     1.0000   1.0000   1.0000   1.0000   1.0000   1.0000   1.0000   1.0000
     1.0000   1.0000   1.0000   1.0000   1.0000   1.0000   1.0000   1.0000
     1.0000   1.0000   1.0000   1.0000   1.0000   1.0000   1.0000   1.0000
     1.0000   1.0000

          k =-0.5000 0.2109 0.2725 ( 27287 PWs)   bands (ev):

   -15.5987 -15.5963 -14.8045 -14.7942 -13.5498 -13.5255 -13.0240 -13.0223
   -12.1963 -12.1884 -11.9383 -11.8987 -10.9502 -10.9326  -9.6115  -9.5473
    -8.8384  -8.7906  -8.4451  -8.4444  -8.1628  -8.1491  -6.8894  -6.7763
    -6.6100  -6.4604  -6.0577  -6.0164  -5.0618  -4.9301  -4.8607  -4.7711
    -4.5814  -4.5244  -4.5127  -4.5120  -3.8996  -3.8449  -3.5850  -3.5740
    -3.5554  -3.5446  -3.5227  -3.4241  -3.0820  -2.9981  -2.8641  -2.7378
    -2.7006  -2.5752  -1.8736  -1.7678  -1.7053  -1.5682  -1.4145  -1.3872
    -1.2158  -1.2085  -1.0915  -1.0789  -0.1715  -0.1625   0.1524   0.1619
     1.3012   1.3188

     occupation numbers 
     1.0000   1.0000   1.0000   1.0000   1.0000   1.0000   1.0000   1.0000
     1.0000   1.0000   1.0000   1.0000   1.0000   1.0000   1.0000   1.0000
     1.0000   1.0000   1.0000   1.0000   1.0000   1.0000   1.0000   1.0000
     1.0000   1.0000   1.0000   1.0000   1.0000   1.0000   1.0000   1.0000
     1.0000   1.0000   1.0000   1.0000   1.0000   1.0000   1.0000   1.0000
     1.0000   1.0000   1.0000   1.0000   1.0000   1.0000   1.0000   1.0000
     1.0000   1.0000   1.0000   1.0000   1.0000   1.0000   1.0000   1.0000
     1.0000   1.0000   1.0000   1.0000   1.0000   1.0000   1.0000   1.0000
     1.0000   1.0000

          k =-0.5000-0.6327 0.2725 ( 27284 PWs)   bands (ev):

   -15.5762 -15.5762 -14.7801 -14.7801 -13.5209 -13.5209 -13.0948 -13.0948
   -12.2591 -12.2591 -11.9118 -11.9118 -11.0030 -11.0030  -9.5515  -9.5515
    -8.8382  -8.8382  -8.2644  -8.2644  -8.0453  -8.0453  -6.8765  -6.8765
    -6.4600  -6.4600  -5.8900  -5.8900  -4.9526  -4.9526  -4.9389  -4.9389
    -4.8745  -4.8745  -4.5189  -4.5189  -4.0910  -4.0910  -3.7420  -3.7420
    -3.4652  -3.4652  -3.4204  -3.4204  -2.9783  -2.9783  -2.7229  -2.7229
    -2.5559  -2.5559  -1.8825  -1.8825  -1.6419  -1.6419  -1.5149  -1.5149
    -1.2415  -1.2415  -0.7885  -0.7885   0.0234   0.0234   0.1377   0.1377
     1.4893   1.4893

     occupation numbers 
     1.0000   1.0000   1.0000   1.0000   1.0000   1.0000   1.0000   1.0000
     1.0000   1.0000   1.0000   1.0000   1.0000   1.0000   1.0000   1.0000
     1.0000   1.0000   1.0000   1.0000   1.0000   1.0000   1.0000   1.0000
     1.0000   1.0000   1.0000   1.0000   1.0000   1.0000   1.0000   1.0000
     1.0000   1.0000   1.0000   1.0000   1.0000   1.0000   1.0000   1.0000
     1.0000   1.0000   1.0000   1.0000   1.0000   1.0000   1.0000   1.0000
     1.0000   1.0000   1.0000   1.0000   1.0000   1.0000   1.0000   1.0000
     1.0000   1.0000   1.0000   1.0000   1.0000   1.0000   1.0000   1.0000
     1.0000   1.0000

     highest occupied level (ev):     1.5697

!    total energy              =    -371.53358234 Ry
     Harris-Foulkes estimate   =    -371.53358234 Ry
[...]
     atom   17 type  2   force =     0.00000000    0.00000000    0.00000000
     atom   18 type  2   force =     0.00000000    0.00000000    0.00000000
     atom   19 type  2   force =     0.00000000    0.00000000    0.00000000
     atom   20 type  2   force =     0.00000000    0.00000000    0.00000000
     atom   21 type  2   force =     0.00000000    0.00000000    0.00000000
     atom   22 type  2   force =     0.00000000    0.00000000    0.00000000
     atom   23 type  2   force =     0.00000000    0.00000000    0.00000000
     atom   24 type  2   force =     0.00000000    0.00000000    0.00000000
     atom   25 type  1   force =    -0.00055002   -0.00098519    0.00000372
     atom   26 type  1   force =     0.00053450    0.00097447    0.00089414
     atom   27 type  1   force =    -0.00062723   -0.00117533   -0.00211112
     atom   28 type  1   force =     0.00032940    0.00064323    0.00297260
     atom   29 type  1   force =     0.00055002    0.00098519   -0.00000372
     atom   30 type  1   force =    -0.00053054   -0.00098585    0.00088427
     atom   31 type  1   force =     0.00059125    0.00115749   -0.00212616
     atom   32 type  1   force =    -0.00037613   -0.00059900    0.00297534
     atom   33 type  1   force =     0.00053054    0.00098585   -0.00088427
     atom   34 type  1   force =    -0.00059125   -0.00115749    0.00212616
     atom   35 type  1   force =     0.00037613    0.00059900   -0.00297534
     atom   36 type  1   force =    -0.00053450   -0.00097447   -0.00089414
     atom   37 type  1   force =     0.00062723    0.00117533    0.00211112
     atom   38 type  1   force =    -0.00032940   -0.00064323   -0.00297260
     atom   39 type  2   force =     0.00000000    0.00000000    0.00000000
     atom   40 type  2   force =     0.00000000    0.00000000    0.00000000
     atom   41 type  2   force =     0.00000000    0.00000000    0.00000000
     atom   42 type  2   force =     0.00000000    0.00000000    0.00000000
     atom   43 type  2   force =     0.00000000    0.00000000    0.00000000
     atom   44 type  2   force =     0.00000000    0.00000000    0.00000000
     atom   45 type  2   force =     0.00000000    0.00000000    0.00000000
     atom   46 type  2   force =     0.00000000    0.00000000    0.00000000
     atom   47 type  2   force =     0.00000000    0.00000000    0.00000000
     atom   48 type  2   force =     0.00000000    0.00000000    0.00000000
     The Hubbard contrib.    to forces
     atom    1 type  1   force =     0.00000000    0.00000000    0.00000000
     atom    2 type  1   force =     0.00000000    0.00000000    0.00000000
     atom    3 type  1   force =     0.00000000    0.00000000    0.00000000
     atom    4 type  1   force =     0.00000000    0.00000000    0.00000000
     atom    5 type  1   force =     0.00000000    0.00000000    0.00000000
     atom    6 type  1   force =     0.00000000    0.00000000    0.00000000
     atom    7 type  1   force =     0.00000000    0.00000000    0.00000000
     atom    8 type  1   force =     0.00000000    0.00000000    0.00000000
     atom    9 type  1   force =     0.00000000    0.00000000    0.00000000
     atom   10 type  1   force =     0.00000000    0.00000000    0.00000000
     atom   11 type  1   force =     0.00000000    0.00000000    0.00000000
     atom   12 type  1   force =     0.00000000    0.00000000    0.00000000
     atom   13 type  1   force =     0.00000000    0.00000000    0.00000000
     atom   14 type  1   force =     0.00000000    0.00000000    0.00000000
     atom   15 type  2   force =     0.00000000    0.00000000    0.00000000
     atom   16 type  2   force =     0.00000000    0.00000000    0.00000000
     atom   17 type  2   force =     0.00000000    0.00000000    0.00000000
     atom   18 type  2   force =     0.00000000    0.00000000    0.00000000
     atom   19 type  2   force =     0.00000000    0.00000000    0.00000000
     atom   20 type  2   force =     0.00000000    0.00000000    0.00000000
     atom   21 type  2   force =     0.00000000    0.00000000    0.00000000
     atom   22 type  2   force =     0.00000000    0.00000000    0.00000000
     atom   23 type  2   force =     0.00000000    0.00000000    0.00000000
     atom   24 type  2   force =     0.00000000    0.00000000    0.00000000
     atom   25 type  1   force =     0.00000000    0.00000000    0.00000000
     atom   26 type  1   force =     0.00000000    0.00000000    0.00000000
     atom   27 type  1   force =     0.00000000    0.00000000    0.00000000
     atom   28 type  1   force =     0.00000000    0.00000000    0.00000000
     atom   29 type  1   force =     0.00000000    0.00000000    0.00000000
     atom   30 type  1   force =     0.00000000    0.00000000    0.00000000
     atom   31 type  1   force =     0.00000000    0.00000000    0.00000000
     atom   32 type  1   force =     0.00000000    0.00000000    0.00000000
     atom   33 type  1   force =     0.00000000    0.00000000    0.00000000
     atom   34 type  1   force =     0.00000000    0.00000000    0.00000000
     atom   35 type  1   force =     0.00000000    0.00000000    0.00000000
     atom   36 type  1   force =     0.00000000    0.00000000    0.00000000
     atom   37 type  1   force =     0.00000000    0.00000000    0.00000000
     atom   38 type  1   force =     0.00000000    0.00000000    0.00000000
     atom   39 type  2   force =     0.00000000    0.00000000    0.00000000
     atom   40 type  2   force =     0.00000000    0.00000000    0.00000000
     atom   41 type  2   force =     0.00000000    0.00000000    0.00000000
     atom   42 type  2   force =     0.00000000    0.00000000    0.00000000
     atom   43 type  2   force =     0.00000000    0.00000000    0.00000000
     atom   44 type  2   force =     0.00000000    0.00000000    0.00000000
     atom   45 type  2   force =     0.00000000    0.00000000    0.00000000
     atom   46 type  2   force =     0.00000000    0.00000000    0.00000000
     atom   47 type  2   force =     0.00000000    0.00000000    0.00000000
     atom   48 type  2   force =     0.00000000    0.00000000    0.00000000
     The SCF correction term to forces
     atom    1 type  1   force =     0.00000039   -0.00000085    0.00000151
     atom    2 type  1   force =     0.00000063   -0.00000142    0.00000274
     atom    3 type  1   force =    -0.00000006    0.00000016    0.00000328
     atom    4 type  1   force =     0.00000015   -0.00000037    0.00000037
     atom    5 type  1   force =    -0.00000039    0.00000085   -0.00000151
     atom    6 type  1   force =     0.00000021   -0.00000059    0.00000169
     atom    7 type  1   force =    -0.00000024    0.00000049    0.00000299
     atom    8 type  1   force =     0.00000090   -0.00000181    0.00000152
     atom    9 type  1   force =    -0.00000021    0.00000059   -0.00000169
     atom   10 type  1   force =     0.00000024   -0.00000049   -0.00000299
     atom   11 type  1   force =    -0.00000090    0.00000181   -0.00000152
     atom   12 type  1   force =    -0.00000063    0.00000142   -0.00000274
     atom   13 type  1   force =     0.00000006   -0.00000016   -0.00000328
     atom   14 type  1   force =    -0.00000015    0.00000037   -0.00000037
     atom   15 type  2   force =     0.00000002   -0.00000012    0.00000014
     atom   16 type  2   force =    -0.00000009    0.00000026    0.00000054
     atom   17 type  2   force =    -0.00000009    0.00000022   -0.00000044
     atom   18 type  2   force =    -0.00000002    0.00000012   -0.00000014
     atom   19 type  2   force =    -0.00000013    0.00000034    0.00000053
     atom   20 type  2   force =     0.00000007   -0.00000013    0.00000008
     atom   21 type  2   force =     0.00000013   -0.00000034   -0.00000053
     atom   22 type  2   force =    -0.00000007    0.00000013   -0.00000008
     atom   23 type  2   force =     0.00000009   -0.00000026   -0.00000054
     atom   24 type  2   force =     0.00000009   -0.00000022    0.00000044
     atom   25 type  1   force =    -0.00000039   -0.00000085   -0.00000151
     atom   26 type  1   force =     0.00000021    0.00000059    0.00000169
     atom   27 type  1   force =    -0.00000024   -0.00000049    0.00000299
     atom   28 type  1   force =     0.00000090    0.00000181    0.00000152
     atom   29 type  1   force =     0.00000039    0.00000085    0.00000151
     atom   30 type  1   force =     0.00000063    0.00000142    0.00000274
     atom   31 type  1   force =    -0.00000006   -0.00000016    0.00000328
     atom   32 type  1   force =     0.00000015    0.00000037    0.00000037
     atom   33 type  1   force =    -0.00000063   -0.00000142   -0.00000274
     atom   34 type  1   force =     0.00000006    0.00000016   -0.00000328
     atom   35 type  1   force =    -0.00000015   -0.00000037   -0.00000037
     atom   36 type  1   force =    -0.00000021   -0.00000059   -0.00000169
     atom   37 type  1   force =     0.00000024    0.00000049   -0.00000299
     atom   38 type  1   force =    -0.00000090   -0.00000181   -0.00000152
     atom   39 type  2   force =    -0.00000002   -0.00000012   -0.00000014
     atom   40 type  2   force =    -0.00000013   -0.00000034    0.00000053
     atom   41 type  2   force =     0.00000007    0.00000013    0.00000008
     atom   42 type  2   force =     0.00000002    0.00000012    0.00000014
     atom   43 type  2   force =    -0.00000009   -0.00000026    0.00000054
     atom   44 type  2   force =    -0.00000009   -0.00000022   -0.00000044
     atom   45 type  2   force =     0.00000009    0.00000026   -0.00000054
     atom   46 type  2   force =     0.00000009    0.00000022    0.00000044
     atom   47 type  2   force =     0.00000013    0.00000034   -0.00000053
     atom   48 type  2   force =    -0.00000007   -0.00000013   -0.00000008

     DFT-D3 dispersion contribution to forces:
     atom    1 type  1   force =    -0.00038004    0.00098731    0.00000384
     atom    2 type  1   force =    -0.00045194    0.00086468    0.00013749
     atom    3 type  1   force =    -0.00037576    0.00092953   -0.00006684
     atom    4 type  1   force =    -0.00030537    0.00058570   -0.00058904
     atom    5 type  1   force =     0.00038004   -0.00098731   -0.00000384
     atom    6 type  1   force =     0.00044431   -0.00086665    0.00013966
     atom    7 type  1   force =     0.00036418   -0.00097746   -0.00006239
     atom    8 type  1   force =     0.00029142   -0.00058229   -0.00065847
     atom    9 type  1   force =    -0.00044431    0.00086665   -0.00013966
     atom   10 type  1   force =    -0.00036418    0.00097746    0.00006239
     atom   11 type  1   force =    -0.00029142    0.00058229    0.00065847
     atom   12 type  1   force =     0.00045194   -0.00086468   -0.00013749
     atom   13 type  1   force =     0.00037576   -0.00092953    0.00006684
     atom   14 type  1   force =     0.00030537   -0.00058570    0.00058904
     atom   15 type  2   force =    -0.00031436    0.00062111    0.00000481
     atom   16 type  2   force =    -0.00027919    0.00052478    0.00011522
     atom   17 type  2   force =    -0.00023845    0.00019494   -0.00020722
     atom   18 type  2   force =     0.00031436   -0.00062111   -0.00000481
     atom   19 type  2   force =     0.00029785   -0.00055067    0.00006668
     atom   20 type  2   force =     0.00008790   -0.00019827   -0.00026089
     atom   21 type  2   force =    -0.00029785    0.00055067   -0.00006668
     atom   22 type  2   force =    -0.00008790    0.00019827    0.00026089
     atom   23 type  2   force =     0.00027919   -0.00052478   -0.00011522
     atom   24 type  2   force =     0.00023845   -0.00019494    0.00020722
     atom   25 type  1   force =     0.00038004    0.00098731   -0.00000384
     atom   26 type  1   force =     0.00044431    0.00086665    0.00013966
     atom   27 type  1   force =     0.00036418    0.00097746   -0.00006239
     atom   28 type  1   force =     0.00029142    0.00058229   -0.00065847
     atom   29 type  1   force =    -0.00038004   -0.00098731    0.00000384
     atom   30 type  1   force =    -0.00045194   -0.00086468    0.00013749
     atom   31 type  1   force =    -0.00037576   -0.00092953   -0.00006684
     atom   32 type  1   force =    -0.00030537   -0.00058570   -0.00058904
     atom   33 type  1   force =     0.00045194    0.00086468   -0.00013749
     atom   34 type  1   force =     0.00037576    0.00092953    0.00006684
     atom   35 type  1   force =     0.00030537    0.00058570    0.00058904
     atom   36 type  1   force =    -0.00044431   -0.00086665   -0.00013966
     atom   37 type  1   force =    -0.00036418   -0.00097746    0.00006239
     atom   38 type  1   force =    -0.00029142   -0.00058229    0.00065847
     atom   39 type  2   force =     0.00031436    0.00062111   -0.00000481
     atom   40 type  2   force =     0.00029785    0.00055067    0.00006668
     atom   41 type  2   force =     0.00008790    0.00019827   -0.00026089
     atom   42 type  2   force =    -0.00031436   -0.00062111    0.00000481
     atom   43 type  2   force =    -0.00027919   -0.00052478    0.00011522
     atom   44 type  2   force =    -0.00023845   -0.00019494   -0.00020722
     atom   45 type  2   force =     0.00027919    0.00052478   -0.00011522
     atom   46 type  2   force =     0.00023845    0.00019494    0.00020722
     atom   47 type  2   force =    -0.00029785   -0.00055067   -0.00006668
     atom   48 type  2   force =    -0.00008790   -0.00019827    0.00026089

     Total force =     0.003965     Total SCF correction =     0.000013

     DFT-D3 dispersion Force =     0.005762


     Computing stress (Cartesian axis) and pressure

          total   stress  (Ry/bohr**3)                   (kbar)     P=   -0.23
  -0.00000110   0.00000000   0.00000008         -0.16      0.00      0.01
   0.00000000  -0.00000035   0.00000000          0.00     -0.05      0.00
   0.00000008   0.00000000  -0.00000317          0.01      0.00     -0.47

     kinetic stress (kbar)   7313.19      0.00     -1.62
                                0.00   6844.30      0.00
                               -1.62      0.00   6655.16

     local   stress (kbar)   -416.73     -0.00   -298.55
                               -0.00  -9830.35     -0.00
                             -298.55     -0.00 -11982.63

     nonloc. stress (kbar)   1078.80      0.00      0.18
                                0.00   1123.22      0.00
                                0.18      0.00   1155.74

     hartree stress (kbar)   1256.57     -0.00    128.34
                               -0.00   3975.22      0.00
                              128.34      0.00   3792.24

     exc-cor stress (kbar)   -362.18      0.00      0.16
                                0.00   -326.12      0.00
                                0.16      0.00   -308.68

     corecor stress (kbar)  -1432.03     -0.00     -0.06
                               -0.00  -1446.99     -0.00
                               -0.06     -0.00  -1455.11

     ewald   stress (kbar)  -7426.74      0.00    171.58
                                0.00   -330.57      0.00
                              171.58      0.00   2149.26

     hubbard stress (kbar)      0.00      0.00      0.00
                                0.00      0.00      0.00
                                0.00      0.00      0.00

     london  stress (kbar)      0.00      0.00      0.00
                                0.00      0.00      0.00
                                0.00      0.00      0.00

     DFT-D3  stress (kbar)    -11.03      0.00     -0.03
                                0.00     -8.76     -0.00
                               -0.03     -0.00     -6.45

     XDM     stress (kbar)      0.00      0.00      0.00
                                0.00      0.00      0.00
                                0.00      0.00      0.00

     dft-nl  stress (kbar)      0.00      0.00      0.00
                                0.00      0.00      0.00
                                0.00      0.00      0.00

     TS-vdW  stress (kbar)      0.00      0.00      0.00
                                0.00      0.00      0.00
                                0.00      0.00      0.00



     Writing output data file wm.save/
 
     init_run     :      2.90s CPU      3.03s WALL (       2 calls)
     electrons    :    257.41s CPU    266.49s WALL (      14 calls)
     update_pot   :      8.59s CPU      8.66s WALL (      12 calls)
     forces       :    110.55s CPU    111.42s WALL (      14 calls)
     stress       :    130.03s CPU    130.69s WALL (      14 calls)

     Called by init_run:
     wfcinit      :      1.11s CPU      1.16s WALL (       2 calls)
     wfcinit:atom :      0.01s CPU      0.01s WALL (      12 calls)
     wfcinit:wfcr :      1.03s CPU      1.07s WALL (      12 calls)
     potinit      :      0.53s CPU      0.53s WALL (       2 calls)
     hinit0       :      0.76s CPU      0.82s WALL (       2 calls)

     Called by electrons:
     c_bands      :    154.58s CPU    159.16s WALL (     160 calls)
     sum_band     :     23.35s CPU     24.29s WALL (     160 calls)
     v_of_rho     :      5.04s CPU      5.37s WALL (     170 calls)
     v_h          :      0.43s CPU      0.47s WALL (     170 calls)
     v_xc         :      5.35s CPU      5.69s WALL (     198 calls)
     newd         :      5.08s CPU      5.17s WALL (     170 calls)
     mix_rho      :      0.87s CPU      0.93s WALL (     160 calls)

     Called by c_bands:
     init_us_2    :      3.63s CPU      3.70s WALL (    2100 calls)
     cegterg      :    147.68s CPU    152.14s WALL (     960 calls)

     Called by sum_band:
     sum_band:bec :      0.11s CPU      0.12s WALL (     960 calls)
     addusdens    :      5.09s CPU      5.15s WALL (     160 calls)

     Called by *egterg:
     h_psi        :     79.35s CPU     82.52s WALL (    3960 calls)
     s_psi        :      7.48s CPU      7.53s WALL (    3960 calls)
     g_psi        :      0.33s CPU      0.34s WALL (    2988 calls)
     cdiaghg      :     35.76s CPU     36.61s WALL (    3852 calls)
     cegterg:over :     10.55s CPU     10.68s WALL (    2988 calls)
     cegterg:upda :      8.04s CPU      8.20s WALL (    2988 calls)
     cegterg:last :      3.35s CPU      3.47s WALL (     984 calls)
     cdiaghg:chol :      3.94s CPU      4.17s WALL (    3852 calls)
     cdiaghg:inve :      1.76s CPU      1.77s WALL (    3852 calls)
     cdiaghg:para :      1.98s CPU      2.13s WALL (    7704 calls)

     Called by h_psi:
     h_psi:pot    :     78.65s CPU     81.80s WALL (    3960 calls)
     h_psi:calbec :      9.66s CPU     10.58s WALL (    3960 calls)
     vloc_psi     :     61.42s CPU     63.61s WALL (    3960 calls)
     add_vuspsi   :      7.52s CPU      7.57s WALL (    3960 calls)

     General routines
     calbec       :     15.84s CPU     17.28s WALL (    5340 calls)
     fft          :      4.31s CPU      4.88s WALL (    2548 calls)
     ffts         :      0.20s CPU      0.22s WALL (     330 calls)
     fftw         :     67.03s CPU     69.37s WALL (  417940 calls)
     interpolate  :      0.39s CPU      0.44s WALL (     170 calls)
 
     Parallel routines
     fft_scatt_xy :      6.72s CPU      6.95s WALL (  420818 calls)
     fft_scatt_yz :     36.88s CPU     38.66s WALL (  420818 calls)
 
     PWSCF        :   8m31.06s CPU   8m46.85s WALL

 
   This run was terminated on:  16:41:56  22Jul2020            

=------------------------------------------------------------------------------=
   JOB DONE.
=------------------------------------------------------------------------------=
