
     Program PWSCF v.6.4.1 starts on 22Jul2020 at 15:36: 6 

     This program is part of the open-source Quantum ESPRESSO suite
     for quantum simulation of materials; please cite
         "P. Giannozzi et al., J. Phys.:Condens. Matter 21 395502 (2009);
         "P. Giannozzi et al., J. Phys.:Condens. Matter 29 465901 (2017);
          URL http://www.quantum-espresso.org", 
     in publications or presentations arising from this work. More details at
     http://www.quantum-espresso.org/quote

     Parallel version (MPI), running on    36 processors

     MPI processes distributed on     1 nodes
     R & G space division:  proc/nbgrp/npool/nimage =      36
     Waiting for input...
     Reading input from standard input

     Current dimensions of program PWSCF are:
     Max number of different atomic species (ntypx) = 10
     Max number of k-points (npk) =  40000
     Max angular momentum in pseudopotentials (lmaxx) =  3

     IMPORTANT: XC functional enforced from input :
     Exchange-correlation      = PBE ( 1  4  3  4 0 0)
     Any further DFT definition will be discarded
     Please, verify this is what you really want


     --------------------------------------------
     Parameters for DFT-D3 Dispersion Correction:
     --------------------------------------------
       Reference C6 values for interpolation: 

         atom   Coordination number   C6
         H          0.912             6.05
         H          0.000            15.18
         C          0.000            98.23
         C          0.987            86.49
         C          1.998            58.72
         C          2.999            51.56
         C          3.984            36.41

       Values used:

         atom   Coordination number  R0_AB[au]  C6      C8
         C          3.206            2.750     49.99   1445.90
         C          3.234            2.750     49.64   1435.59
         C          3.165            2.750     50.40   1457.74
         C          3.132            2.750     50.67   1465.50
         C          3.206            2.750     49.99   1445.90
         C          3.235            2.750     49.63   1435.44
         C          3.168            2.750     50.38   1457.04
         C          3.133            2.750     50.67   1465.38
         C          3.235            2.750     49.63   1435.44
         C          3.168            2.750     50.38   1457.04
         C          3.133            2.750     50.67   1465.38
         C          3.234            2.750     49.64   1435.59
         C          3.165            2.750     50.40   1457.74
         C          3.132            2.750     50.67   1465.50
         H          1.007            2.062      6.17     74.64
         H          1.006            2.062      6.18     74.65
         H          1.006            2.062      6.18     74.65
         H          1.007            2.062      6.17     74.64
         H          1.008            2.062      6.17     74.64
         H          1.006            2.062      6.18     74.66
         H          1.008            2.062      6.17     74.64
         H          1.006            2.062      6.18     74.66
         H          1.006            2.062      6.18     74.65
         H          1.006            2.062      6.18     74.65
         C          3.206            2.750     49.99   1445.90
         C          3.235            2.750     49.63   1435.44
         C          3.168            2.750     50.38   1457.04
         C          3.133            2.750     50.67   1465.38
         C          3.206            2.750     49.99   1445.90
         C          3.234            2.750     49.64   1435.59
         C          3.165            2.750     50.40   1457.74
         C          3.132            2.750     50.67   1465.50
         C          3.234            2.750     49.64   1435.59
         C          3.165            2.750     50.40   1457.74
         C          3.132            2.750     50.67   1465.50
         C          3.235            2.750     49.63   1435.44
         C          3.168            2.750     50.38   1457.04
         C          3.133            2.750     50.67   1465.38
         H          1.007            2.062      6.17     74.64
         H          1.008            2.062      6.17     74.64
         H          1.006            2.062      6.18     74.66
         H          1.007            2.062      6.17     74.64
         H          1.006            2.062      6.18     74.65
         H          1.006            2.062      6.18     74.65
         H          1.006            2.062      6.18     74.65
         H          1.006            2.062      6.18     74.65
         H          1.008            2.062      6.17     74.64
         H          1.006            2.062      6.18     74.66

         Molecular C6 ( Ry / a.u.^6 ) =     61512.86


     Subspace diagonalization in iterative solution of the eigenvalue problem:
     one sub-group per band group will be used
     scalapack distributed-memory algorithm (size of sub-group:  4*  4 procs)

     Message from routine setup:
     DEPRECATED: symmetry with ibrav=0, use correct ibrav instead
 
     Parallelization info
     --------------------
     sticks:   dense  smooth     PW     G-vecs:    dense   smooth      PW
     Min         234     104     28                20122     5959     843
     Max         235     106     29                20126     5963     845
     Sum        8455    3751   1021               724473   214611   30365
 


     bravais-lattice index     =            0
     lattice parameter (alat)  =      16.2516  a.u.
     unit-cell volume          =    3102.9829 (a.u.)^3
     number of atoms/cell      =           48
     number of atomic types    =            2
     number of electrons       =       132.00
     number of Kohn-Sham states=           66
     kinetic-energy cutoff     =      64.0000  Ry
     charge density cutoff     =     576.0000  Ry
     convergence threshold     =      1.0E-08
     mixing beta               =       0.7000
     number of iterations used =            8  plain     mixing
     Exchange-correlation      = PBE ( 1  4  3  4 0 0)
     nstep                     =           50


     celldm(1)=  16.251645  celldm(2)=   0.000000  celldm(3)=   0.000000
     celldm(4)=   0.000000  celldm(5)=   0.000000  celldm(6)=   0.000000

     crystal axes: (cart. coord. in units of alat)
               a(1) = (   0.532737   0.300218  -0.791239 )  
               a(2) = (   0.079002   0.628790   0.291773 )  
               a(3) = (   0.751315  -0.390021   0.637092 )  

     reciprocal axes: (cart. coord. in units 2 pi/alat)
               b(1) = (  0.711556  0.233611 -0.696115 )  
               b(2) = (  0.162306  1.291814  0.599431 )  
               b(3) = (  0.809388 -0.301485  0.430565 )  


     PseudoPot. # 1 for C  read from file:
     /home/ck834/qe/pseudo/C.pbe-n-rrkjus_psl.1.0.0.UPF
     MD5 check sum: 1fdd950c42eb37d8afe3dd2f8d12311e
     Pseudo is Ultrasoft + core correction, Zval =  4.0
     Generated using "atomic" code by A. Dal Corso v.6.3MaX
     Using radial grid of 1073 points,  4 beta functions with: 
                l(1) =   0
                l(2) =   0
                l(3) =   1
                l(4) =   1
     Q(r) pseudized with 0 coefficients 


     PseudoPot. # 2 for H  read from file:
     /home/ck834/qe/pseudo/H.pbe-rrkjus_psl.1.0.0.UPF
     MD5 check sum: 3f4114867bd07edc7f1424d066fc1888
     Pseudo is Ultrasoft, Zval =  1.0
     Generated using "atomic" code by A. Dal Corso v.6.3MaX
     Using radial grid of  929 points,  2 beta functions with: 
                l(1) =   0
                l(2) =   0
     Q(r) pseudized with 0 coefficients 


     atomic species   valence    mass     pseudopotential
        C              4.00    12.01100     C ( 1.00)
        H              1.00     1.00794     H ( 1.00)

      2 Sym. Ops., with inversion, found


                                    s                        frac. trans.

      isym =  1     identity                                     

 cryst.   s( 1) = (     1          0          0      )
                  (     0          1          0      )
                  (     0          0          1      )

 cart.    s( 1) = (  1.0000000 -0.0000000  0.0000000 )
                  (  0.0000000  1.0000000 -0.0000000 )
                  ( -0.0000000 -0.0000000  1.0000000 )


      isym =  2     inversion                                    

 cryst.   s( 2) = (    -1          0          0      )
                  (     0         -1          0      )
                  (     0          0         -1      )

 cart.    s( 2) = ( -1.0000000  0.0000000  0.0000000 )
                  (  0.0000000 -1.0000000  0.0000000 )
                  (  0.0000000  0.0000000 -1.0000000 )


   Cartesian axes

     site n.     atom                  positions (alat units)
         1           C   tau(   1) = (   0.0000000   0.1634523   0.0000000  )
         2           C   tau(   2) = (  -0.1422081   0.0839128   0.0000000  )
         3           C   tau(   3) = (  -0.2876128   0.1636674   0.0000000  )
         4           C   tau(   4) = (  -0.4254140   0.0826698   0.0000000  )
         5           C   tau(   5) = (   0.0000000  -0.1634523   0.0000000  )
         6           C   tau(   6) = (  -0.1422081  -0.0839128   0.0000000  )
         7           C   tau(   7) = (  -0.2876128  -0.1636674   0.0000000  )
         8           C   tau(   8) = (  -0.4254140  -0.0826698   0.0000000  )
         9           C   tau(   9) = (   0.1422081   0.0839128   0.0000000  )
        10           C   tau(  10) = (   0.2876128   0.1636674   0.0000000  )
        11           C   tau(  11) = (   0.4254140   0.0826698   0.0000000  )
        12           C   tau(  12) = (   0.1422081  -0.0839128   0.0000000  )
        13           C   tau(  13) = (   0.2876128  -0.1636674   0.0000000  )
        14           C   tau(  14) = (   0.4254140  -0.0826698   0.0000000  )
        15           H   tau(  15) = (   0.0000000   0.2903198   0.0000000  )
        16           H   tau(  16) = (  -0.2876360   0.2903221   0.0000000  )
        17           H   tau(  17) = (  -0.5353791   0.1451430   0.0000000  )
        18           H   tau(  18) = (   0.0000000  -0.2903198   0.0000000  )
        19           H   tau(  19) = (  -0.2876360  -0.2903221   0.0000000  )
        20           H   tau(  20) = (  -0.5353791  -0.1451430   0.0000000  )
        21           H   tau(  21) = (   0.2876360   0.2903221   0.0000000  )
        22           H   tau(  22) = (   0.5353791   0.1451430   0.0000000  )
        23           H   tau(  23) = (   0.2876360  -0.2903221   0.0000000  )
        24           H   tau(  24) = (   0.5353791  -0.1451430   0.0000000  )
        25           C   tau(  25) = (   0.3392326   0.5665895  -0.1265186  )
        26           C   tau(  26) = (   0.1844372   0.5459395  -0.1730081  )
        27           C   tau(  27) = (   0.0590395   0.6254302  -0.0991151  )
        28           C   tau(  28) = (  -0.0917593   0.6029686  -0.1471221  )
        29           C   tau(  29) = (   0.2725070   0.3624186  -0.3729488  )
        30           C   tau(  30) = (   0.1501814   0.4411221  -0.2995209  )
        31           C   tau(  31) = (  -0.0077744   0.4209895  -0.3458698  )
        32           C   tau(  32) = (  -0.1255081   0.4997046  -0.2717605  )
        33           C   tau(  33) = (   0.4615581   0.4878860  -0.1999465  )
        34           C   tau(  34) = (   0.6195140   0.5080186  -0.1535965  )
        35           C   tau(  35) = (   0.7372477   0.4293046  -0.2277070  )
        36           C   tau(  36) = (   0.4273035   0.3830698  -0.3264581  )
        37           C   tau(  37) = (   0.5527000   0.3035791  -0.4003512  )
        38           C   tau(  38) = (   0.7035000   0.3260395  -0.3523442  )
        39           H   tau(  39) = (   0.3651279   0.6458267  -0.0308814  )
        40           H   tau(  40) = (   0.0848686   0.7045384  -0.0036372  )
        41           H   tau(  41) = (  -0.1861535   0.6644326  -0.0896128  )
        42           H   tau(  42) = (   0.2466116   0.2831814  -0.4685860  )
        43           H   tau(  43) = (  -0.0336477   0.3418907  -0.4413442  )
        44           H   tau(  44) = (  -0.2454047   0.4831314  -0.3084395  )
        45           H   tau(  45) = (   0.6453872   0.5871174  -0.0581221  )
        46           H   tau(  46) = (   0.8571453   0.4458767  -0.1910267  )
        47           H   tau(  47) = (   0.5268709   0.2244709  -0.4958302  )
        48           H   tau(  48) = (   0.7978942   0.2645756  -0.4098546  )

   Crystallographic axes

     site n.     atom                  positions (cryst. coord.)
         1           C   tau(   1) = (  0.0381843  0.2111501 -0.0492784  )
         2           C   tau(   2) = ( -0.0815860  0.0853185 -0.1404000  )
         3           C   tau(   3) = ( -0.1664179  0.1647466 -0.2821336  )
         4           C   tau(   4) = ( -0.2833931  0.0377467 -0.3692486  )
         5           C   tau(   5) = ( -0.0381843 -0.2111501  0.0492784  )
         6           C   tau(   6) = ( -0.1207920 -0.1314810 -0.0898031  )
         7           C   tau(   7) = ( -0.2428871 -0.2581093 -0.1834471  )
         8           C   tau(   8) = ( -0.3220183 -0.1758413 -0.3194013  )
         9           C   tau(   9) = (  0.1207920  0.1314810  0.0898031  )
        10           C   tau(  10) = (  0.2428871  0.2581093  0.1834471  )
        11           C   tau(  11) = (  0.3220183  0.1758413  0.3194013  )
        12           C   tau(  12) = (  0.0815860 -0.0853185  0.1404000  )
        13           C   tau(  13) = (  0.1664179 -0.1647466  0.2821336  )
        14           C   tau(  14) = (  0.2833931 -0.0377467  0.3692486  )
        15           H   tau(  15) = (  0.0678220  0.3750392 -0.0875270  )
        16           H   tau(  16) = ( -0.1368465  0.3283571 -0.3203369  )
        17           H   tau(  17) = ( -0.3470449  0.1006025 -0.4770878  )
        18           H   tau(  18) = ( -0.0678220 -0.3750392  0.0875270  )
        19           H   tau(  19) = ( -0.2724916 -0.4217273 -0.1452815  )
        20           H   tau(  20) = ( -0.4148591 -0.2743931 -0.3895710  )
        21           H   tau(  21) = (  0.2724916  0.4217273  0.1452815  )
        22           H   tau(  22) = (  0.4148591  0.2743931  0.3895710  )
        23           H   tau(  23) = (  0.1368465 -0.3283571  0.3203369  )
        24           H   tau(  24) = (  0.3470449 -0.1006025  0.4770878  )
        25           C   tau(  25) = (  0.4618160  0.7111489  0.0492782  )
        26           C   tau(  26) = (  0.3792085  0.6314814 -0.0898024  )
        27           C   tau(  27) = (  0.2571130  0.7581096 -0.1834473  )
        28           C   tau(  28) = (  0.1779823  0.6758409 -0.3194004  )
        29           C   tau(  29) = (  0.5381841  0.2888502 -0.0492785  )
        30           C   tau(  30) = (  0.4184144  0.4146812 -0.1403998  )
        31           C   tau(  31) = (  0.3335810  0.3352536 -0.2821339  )
        32           C   tau(  32) = (  0.2166071  0.4622534 -0.3692487  )
        33           C   tau(  33) = (  0.5815857  0.5853178  0.1403994  )
        34           C   tau(  34) = (  0.6664183  0.6647462  0.2821340  )
        35           C   tau(  35) = (  0.7833933  0.5377472  0.3692480  )
        36           C   tau(  36) = (  0.6207919  0.3685200  0.0898032  )
        37           C   tau(  37) = (  0.7428866  0.2418917  0.1834471  )
        38           C   tau(  38) = (  0.8220179  0.3241590  0.3194015  )
        39           H   tau(  39) = (  0.4321783  0.8750395  0.0875268  )
        40           H   tau(  40) = (  0.2275088  0.9217272 -0.1452820  )
        41           H   tau(  41) = (  0.0851412  0.7743930 -0.3895709  )
        42           H   tau(  42) = (  0.5678219  0.1249596 -0.0875271  )
        43           H   tau(  43) = (  0.3631535  0.1716429 -0.3203362  )
        44           H   tau(  44) = (  0.1529552  0.3993973 -0.4770876  )
        45           H   tau(  45) = (  0.6368459  0.8283568  0.3203364  )
        46           H   tau(  46) = (  0.8470450  0.6006026  0.4770887  )
        47           H   tau(  47) = (  0.7724916  0.0782734  0.1452813  )
        48           H   tau(  48) = (  0.9148598  0.2256062  0.3895714  )

     number of k points=     9
                       cart. coord. in units 2pi/alat
        k(    1) = (   0.3479906   0.1788664   0.0915272), wk =   0.2222222
        k(    2) = (  -0.0567034   0.3296088  -0.1237552), wk =   0.2222222
        k(    3) = (   0.2397866  -0.6823431  -0.3080931), wk =   0.2222222
        k(    4) = (  -0.1649075  -0.5316007  -0.5233756), wk =   0.2222222
        k(    5) = (   0.2938886  -0.2517384  -0.1082829), wk =   0.2222222
        k(    6) = (  -0.1108054  -0.1009960  -0.3235654), wk =   0.2222222
        k(    7) = (  -0.1263798   0.0231255   0.5556036), wk =   0.2222222
        k(    8) = (  -0.5310738   0.1738679   0.3403211), wk =   0.2222222
        k(    9) = (  -0.2345839  -0.8380840   0.1559833), wk =   0.2222222

                       cryst. coord.
        k(    1) = (   0.1666667   0.1666667   0.2500000), wk =   0.2222222
        k(    2) = (   0.1666667   0.1666667  -0.2500000), wk =   0.2222222
        k(    3) = (   0.1666667  -0.5000000   0.2500000), wk =   0.2222222
        k(    4) = (   0.1666667  -0.5000000  -0.2500000), wk =   0.2222222
        k(    5) = (   0.1666667  -0.1666667   0.2500000), wk =   0.2222222
        k(    6) = (   0.1666667  -0.1666667  -0.2500000), wk =   0.2222222
        k(    7) = (  -0.5000000   0.1666667   0.2500000), wk =   0.2222222
        k(    8) = (  -0.5000000   0.1666667  -0.2500000), wk =   0.2222222
        k(    9) = (  -0.5000000  -0.5000000   0.2500000), wk =   0.2222222

     Dense  grid:   724473 G-vectors     FFT dimensions: ( 125,  90, 135)

     Smooth grid:   214611 G-vectors     FFT dimensions: (  90,  60,  90)

     Dynamical RAM for                 wfc:       0.75 MB

     Dynamical RAM for     wfc (w. buffer):       7.50 MB

     Dynamical RAM for           str. fact:       0.61 MB

     Dynamical RAM for           local pot:       0.00 MB

     Dynamical RAM for          nlocal pot:       3.00 MB

     Dynamical RAM for                qrad:       8.53 MB

     Dynamical RAM for          rho,v,vnew:       1.95 MB

     Dynamical RAM for               rhoin:       0.65 MB

     Dynamical RAM for            rho*nmix:       4.91 MB

     Dynamical RAM for           G-vectors:       1.20 MB

     Dynamical RAM for          h,s,v(r/c):       0.20 MB

     Dynamical RAM for          <psi|beta>:       0.27 MB

     Dynamical RAM for                 psi:       3.00 MB

     Dynamical RAM for                hpsi:       3.00 MB

     Dynamical RAM for                spsi:       3.00 MB

     Dynamical RAM for      wfcinit/wfcrot:       3.40 MB

     Dynamical RAM for           addusdens:      21.80 MB

     Dynamical RAM for          addusforce:      57.00 MB

     Dynamical RAM for         addusstress:      15.35 MB

     Estimated static dynamical RAM per process >      31.00 MB

     Estimated max dynamical RAM per process >      88.00 MB

     Estimated total dynamical RAM >       3.09 GB

     Check: negative core charge=   -0.000002

     Initial potential from superposition of free atoms

     starting charge  131.99865, renormalised to  132.00000
     Starting wfcs are  132 randomized atomic wfcs

     total cpu time spent up to now is        3.2 secs

     Self-consistent Calculation

     iteration #  1     ecut=    64.00 Ry     beta= 0.70
     Davidson diagonalization with overlap
     ethr =  1.00E-02,  avg # of iterations =  2.0

     total cpu time spent up to now is       10.6 secs

     total energy              =    -370.32984616 Ry
     Harris-Foulkes estimate   =    -373.56253627 Ry
     estimated scf accuracy    <       5.23604286 Ry

     iteration #  2     ecut=    64.00 Ry     beta= 0.70
     Davidson diagonalization with overlap
     ethr =  3.97E-03,  avg # of iterations =  2.0

     total cpu time spent up to now is       12.5 secs

     total energy              =    -371.30307894 Ry
     Harris-Foulkes estimate   =    -371.82860324 Ry
     estimated scf accuracy    <       0.87551936 Ry

     iteration #  3     ecut=    64.00 Ry     beta= 0.70
     Davidson diagonalization with overlap
     ethr =  6.63E-04,  avg # of iterations =  2.0

     total cpu time spent up to now is       14.3 secs

     total energy              =    -371.51850734 Ry
     Harris-Foulkes estimate   =    -371.55241607 Ry
     estimated scf accuracy    <       0.06260914 Ry

     iteration #  4     ecut=    64.00 Ry     beta= 0.70
     Davidson diagonalization with overlap
     ethr =  4.74E-05,  avg # of iterations =  2.0

     total cpu time spent up to now is       16.0 secs

     total energy              =    -371.53182970 Ry
     Harris-Foulkes estimate   =    -371.53531928 Ry
     estimated scf accuracy    <       0.00629239 Ry

     iteration #  5     ecut=    64.00 Ry     beta= 0.70
     Davidson diagonalization with overlap
     ethr =  4.77E-06,  avg # of iterations =  4.0

     total cpu time spent up to now is       18.1 secs

     total energy              =    -371.53322547 Ry
     Harris-Foulkes estimate   =    -371.53412131 Ry
     estimated scf accuracy    <       0.00189531 Ry

     iteration #  6     ecut=    64.00 Ry     beta= 0.70
     Davidson diagonalization with overlap
     ethr =  1.44E-06,  avg # of iterations =  3.1

     total cpu time spent up to now is       20.0 secs

     total energy              =    -371.53370701 Ry
     Harris-Foulkes estimate   =    -371.53386234 Ry
     estimated scf accuracy    <       0.00044317 Ry

     iteration #  7     ecut=    64.00 Ry     beta= 0.70
     Davidson diagonalization with overlap
     ethr =  3.36E-07,  avg # of iterations =  3.0

     total cpu time spent up to now is       21.7 secs

     total energy              =    -371.53377681 Ry
     Harris-Foulkes estimate   =    -371.53378061 Ry
     estimated scf accuracy    <       0.00001145 Ry

     iteration #  8     ecut=    64.00 Ry     beta= 0.70
     Davidson diagonalization with overlap
     ethr =  8.68E-09,  avg # of iterations =  4.0

     total cpu time spent up to now is       23.8 secs

     total energy              =    -371.53378085 Ry
     Harris-Foulkes estimate   =    -371.53378114 Ry
     estimated scf accuracy    <       0.00000103 Ry

     iteration #  9     ecut=    64.00 Ry     beta= 0.70
     Davidson diagonalization with overlap
     ethr =  7.82E-10,  avg # of iterations =  3.8

     total cpu time spent up to now is       26.0 secs

     total energy              =    -371.53378104 Ry
     Harris-Foulkes estimate   =    -371.53378115 Ry
     estimated scf accuracy    <       0.00000030 Ry

     iteration # 10     ecut=    64.00 Ry     beta= 0.70
     Davidson diagonalization with overlap
     ethr =  2.30E-10,  avg # of iterations =  3.3

     total cpu time spent up to now is       27.8 secs

     total energy              =    -371.53378110 Ry
     Harris-Foulkes estimate   =    -371.53378111 Ry
     estimated scf accuracy    <       0.00000003 Ry

     iteration # 11     ecut=    64.00 Ry     beta= 0.70
     Davidson diagonalization with overlap
     ethr =  2.04E-11,  avg # of iterations =  4.0

     total cpu time spent up to now is       30.0 secs

     End of self-consistent calculation

          k = 0.3480 0.1789 0.0915 ( 26843 PWs)   bands (ev):

   -15.5466 -15.4491 -14.7165 -14.6683 -13.4522 -13.3829 -12.9155 -12.9085
   -12.0960 -12.0770 -11.8512 -11.8384 -10.8252 -10.8217  -9.4822  -9.4009
    -8.7221  -8.7042  -8.4001  -8.3479  -8.1498  -8.0581  -6.7127  -6.6624
    -6.5657  -6.4577  -5.9405  -5.9086  -4.8468  -4.8066  -4.7640  -4.7249
    -4.5422  -4.4766  -4.4523  -4.3839  -3.9388  -3.7887  -3.5358  -3.4982
    -3.4570  -3.4208  -3.3360  -3.1710  -2.9192  -2.8945  -2.6171  -2.5284
    -2.4826  -2.4459  -1.9637  -1.8867  -1.6144  -1.5978  -1.4472  -1.2631
    -1.1619  -1.0449  -0.9714  -0.8068  -0.1209   0.0753   0.2008   0.3472
     1.3307   1.5735

     occupation numbers 
     1.0000   1.0000   1.0000   1.0000   1.0000   1.0000   1.0000   1.0000
     1.0000   1.0000   1.0000   1.0000   1.0000   1.0000   1.0000   1.0000
     1.0000   1.0000   1.0000   1.0000   1.0000   1.0000   1.0000   1.0000
     1.0000   1.0000   1.0000   1.0000   1.0000   1.0000   1.0000   1.0000
     1.0000   1.0000   1.0000   1.0000   1.0000   1.0000   1.0000   1.0000
     1.0000   1.0000   1.0000   1.0000   1.0000   1.0000   1.0000   1.0000
     1.0000   1.0000   1.0000   1.0000   1.0000   1.0000   1.0000   1.0000
     1.0000   1.0000   1.0000   1.0000   1.0000   1.0000   1.0000   1.0000
     1.0000   1.0000

          k =-0.0567 0.3296-0.1238 ( 26841 PWs)   bands (ev):

   -15.5533 -15.4454 -14.6898 -14.6787 -13.4442 -13.4386 -12.9184 -12.9079
   -12.0828 -12.0761 -11.8380 -11.7670 -10.8519 -10.8206  -9.5636  -9.4831
    -8.7001  -8.6622  -8.4019  -8.3397  -8.0764  -8.0579  -6.7839  -6.7417
    -6.3879  -6.3339  -5.9970  -5.9093  -5.0103  -4.9953  -4.7234  -4.6658
    -4.5137  -4.4472  -4.4318  -4.3913  -3.8588  -3.7134  -3.5483  -3.5008
    -3.4191  -3.3237  -3.2902  -3.1553  -2.9857  -2.9549  -2.7616  -2.7279
    -2.6180  -2.4606  -1.8613  -1.8103  -1.5206  -1.4606  -1.4527  -1.2640
    -1.0984  -1.0758  -1.0193  -0.7892  -0.0902   0.0312   0.1437   0.3827
     1.3950   1.5220

     occupation numbers 
     1.0000   1.0000   1.0000   1.0000   1.0000   1.0000   1.0000   1.0000
     1.0000   1.0000   1.0000   1.0000   1.0000   1.0000   1.0000   1.0000
     1.0000   1.0000   1.0000   1.0000   1.0000   1.0000   1.0000   1.0000
     1.0000   1.0000   1.0000   1.0000   1.0000   1.0000   1.0000   1.0000
     1.0000   1.0000   1.0000   1.0000   1.0000   1.0000   1.0000   1.0000
     1.0000   1.0000   1.0000   1.0000   1.0000   1.0000   1.0000   1.0000
     1.0000   1.0000   1.0000   1.0000   1.0000   1.0000   1.0000   1.0000
     1.0000   1.0000   1.0000   1.0000   1.0000   1.0000   1.0000   1.0000
     1.0000   1.0000

          k = 0.2398-0.6823-0.3081 ( 26790 PWs)   bands (ev):

   -15.4775 -15.4775 -14.6753 -14.6753 -13.4036 -13.4036 -12.9825 -12.9825
   -12.1505 -12.1505 -11.8424 -11.8424 -10.8737 -10.8737  -9.4241  -9.4241
    -8.7291  -8.7291  -8.1909  -8.1908  -8.0079  -8.0079  -6.7070  -6.7069
    -6.4156  -6.4156  -5.8064  -5.8064  -4.9088  -4.9088  -4.7247  -4.7247
    -4.6716  -4.6716  -4.4493  -4.4493  -4.0437  -4.0437  -3.6439  -3.6439
    -3.4539  -3.4539  -3.4021  -3.4021  -2.8476  -2.8476  -2.5586  -2.5586
    -2.5056  -2.5056  -1.8336  -1.8336  -1.6154  -1.6154  -1.2068  -1.2067
    -1.1070  -1.1069  -0.7586  -0.7585   0.1022   0.1022   0.2739   0.2739
     1.5925   1.5925

     occupation numbers 
     1.0000   1.0000   1.0000   1.0000   1.0000   1.0000   1.0000   1.0000
     1.0000   1.0000   1.0000   1.0000   1.0000   1.0000   1.0000   1.0000
     1.0000   1.0000   1.0000   1.0000   1.0000   1.0000   1.0000   1.0000
     1.0000   1.0000   1.0000   1.0000   1.0000   1.0000   1.0000   1.0000
     1.0000   1.0000   1.0000   1.0000   1.0000   1.0000   1.0000   1.0000
     1.0000   1.0000   1.0000   1.0000   1.0000   1.0000   1.0000   1.0000
     1.0000   1.0000   1.0000   1.0000   1.0000   1.0000   1.0000   1.0000
     1.0000   1.0000   1.0000   1.0000   1.0000   1.0000   1.0000   1.0000
     1.0000   1.0000

          k =-0.1649-0.5316-0.5234 ( 26820 PWs)   bands (ev):

   -15.4798 -15.4797 -14.6653 -14.6653 -13.4292 -13.4291 -12.9842 -12.9842
   -12.1423 -12.1423 -11.7998 -11.7998 -10.8883 -10.8883  -9.5042  -9.5042
    -8.6941  -8.6941  -8.1902  -8.1902  -7.9593  -7.9593  -6.7947  -6.7947
    -6.2769  -6.2769  -5.8304  -5.8304  -4.9931  -4.9931  -4.7728  -4.7728
    -4.6562  -4.6562  -4.4177  -4.4177  -3.9657  -3.9657  -3.6640  -3.6639
    -3.4396  -3.4396  -3.2969  -3.2969  -2.9060  -2.9060  -2.7884  -2.7884
    -2.5215  -2.5215  -1.7847  -1.7847  -1.4646  -1.4646  -1.2261  -1.2261
    -1.1127  -1.1127  -0.7554  -0.7554   0.1407   0.1407   0.2484   0.2484
     1.5728   1.5728

     occupation numbers 
     1.0000   1.0000   1.0000   1.0000   1.0000   1.0000   1.0000   1.0000
     1.0000   1.0000   1.0000   1.0000   1.0000   1.0000   1.0000   1.0000
     1.0000   1.0000   1.0000   1.0000   1.0000   1.0000   1.0000   1.0000
     1.0000   1.0000   1.0000   1.0000   1.0000   1.0000   1.0000   1.0000
     1.0000   1.0000   1.0000   1.0000   1.0000   1.0000   1.0000   1.0000
     1.0000   1.0000   1.0000   1.0000   1.0000   1.0000   1.0000   1.0000
     1.0000   1.0000   1.0000   1.0000   1.0000   1.0000   1.0000   1.0000
     1.0000   1.0000   1.0000   1.0000   1.0000   1.0000   1.0000   1.0000
     1.0000   1.0000

          k = 0.2939-0.2517-0.1083 ( 26843 PWs)   bands (ev):

   -15.5466 -15.4491 -14.7165 -14.6683 -13.4522 -13.3829 -12.9155 -12.9085
   -12.0960 -12.0770 -11.8512 -11.8384 -10.8253 -10.8217  -9.4822  -9.4009
    -8.7221  -8.7042  -8.4001  -8.3479  -8.1498  -8.0581  -6.7127  -6.6624
    -6.5657  -6.4577  -5.9405  -5.9086  -4.8468  -4.8066  -4.7640  -4.7250
    -4.5422  -4.4766  -4.4523  -4.3839  -3.9388  -3.7887  -3.5358  -3.4982
    -3.4569  -3.4208  -3.3360  -3.1710  -2.9192  -2.8945  -2.6171  -2.5284
    -2.4826  -2.4459  -1.9637  -1.8867  -1.6144  -1.5978  -1.4472  -1.2631
    -1.1619  -1.0449  -0.9715  -0.8068  -0.1209   0.0753   0.2008   0.3472
     1.3307   1.5735

     occupation numbers 
     1.0000   1.0000   1.0000   1.0000   1.0000   1.0000   1.0000   1.0000
     1.0000   1.0000   1.0000   1.0000   1.0000   1.0000   1.0000   1.0000
     1.0000   1.0000   1.0000   1.0000   1.0000   1.0000   1.0000   1.0000
     1.0000   1.0000   1.0000   1.0000   1.0000   1.0000   1.0000   1.0000
     1.0000   1.0000   1.0000   1.0000   1.0000   1.0000   1.0000   1.0000
     1.0000   1.0000   1.0000   1.0000   1.0000   1.0000   1.0000   1.0000
     1.0000   1.0000   1.0000   1.0000   1.0000   1.0000   1.0000   1.0000
     1.0000   1.0000   1.0000   1.0000   1.0000   1.0000   1.0000   1.0000
     1.0000   1.0000

          k =-0.1108-0.1010-0.3236 ( 26841 PWs)   bands (ev):

   -15.5533 -15.4454 -14.6898 -14.6787 -13.4442 -13.4386 -12.9184 -12.9079
   -12.0827 -12.0761 -11.8380 -11.7670 -10.8519 -10.8206  -9.5636  -9.4831
    -8.7001  -8.6622  -8.4019  -8.3397  -8.0764  -8.0579  -6.7839  -6.7417
    -6.3879  -6.3339  -5.9970  -5.9093  -5.0103  -4.9953  -4.7234  -4.6658
    -4.5138  -4.4472  -4.4318  -4.3913  -3.8588  -3.7134  -3.5483  -3.5008
    -3.4191  -3.3237  -3.2902  -3.1553  -2.9857  -2.9549  -2.7616  -2.7279
    -2.6180  -2.4605  -1.8613  -1.8103  -1.5206  -1.4606  -1.4527  -1.2640
    -1.0984  -1.0758  -1.0193  -0.7892  -0.0902   0.0312   0.1437   0.3827
     1.3950   1.5220

     occupation numbers 
     1.0000   1.0000   1.0000   1.0000   1.0000   1.0000   1.0000   1.0000
     1.0000   1.0000   1.0000   1.0000   1.0000   1.0000   1.0000   1.0000
     1.0000   1.0000   1.0000   1.0000   1.0000   1.0000   1.0000   1.0000
     1.0000   1.0000   1.0000   1.0000   1.0000   1.0000   1.0000   1.0000
     1.0000   1.0000   1.0000   1.0000   1.0000   1.0000   1.0000   1.0000
     1.0000   1.0000   1.0000   1.0000   1.0000   1.0000   1.0000   1.0000
     1.0000   1.0000   1.0000   1.0000   1.0000   1.0000   1.0000   1.0000
     1.0000   1.0000   1.0000   1.0000   1.0000   1.0000   1.0000   1.0000
     1.0000   1.0000

          k =-0.1264 0.0231 0.5556 ( 26857 PWs)   bands (ev):

   -15.5056 -15.4948 -14.7067 -14.6678 -13.4616 -13.3951 -12.9140 -12.9106
   -12.0904 -12.0766 -11.8549 -11.7934 -10.8436 -10.8163  -9.4852  -9.4816
    -8.7253  -8.6698  -8.3807  -8.3705  -8.1342  -8.0275  -6.7736  -6.6755
    -6.5179  -6.3514  -5.9722  -5.9142  -4.9186  -4.8729  -4.7718  -4.7065
    -4.4870  -4.4386  -4.4164  -4.3872  -3.9086  -3.8444  -3.5149  -3.5041
    -3.4386  -3.3736  -3.3266  -3.2518  -2.9571  -2.9298  -2.6747  -2.6219
    -2.4929  -2.4517  -1.9188  -1.8286  -1.5625  -1.5268  -1.3408  -1.3061
    -1.1538  -1.0420  -0.9756  -0.9391  -0.0480   0.0162   0.2363   0.3144
     1.4227   1.5387

     occupation numbers 
     1.0000   1.0000   1.0000   1.0000   1.0000   1.0000   1.0000   1.0000
     1.0000   1.0000   1.0000   1.0000   1.0000   1.0000   1.0000   1.0000
     1.0000   1.0000   1.0000   1.0000   1.0000   1.0000   1.0000   1.0000
     1.0000   1.0000   1.0000   1.0000   1.0000   1.0000   1.0000   1.0000
     1.0000   1.0000   1.0000   1.0000   1.0000   1.0000   1.0000   1.0000
     1.0000   1.0000   1.0000   1.0000   1.0000   1.0000   1.0000   1.0000
     1.0000   1.0000   1.0000   1.0000   1.0000   1.0000   1.0000   1.0000
     1.0000   1.0000   1.0000   1.0000   1.0000   1.0000   1.0000   1.0000
     1.0000   1.0000

          k =-0.5311 0.1739 0.3403 ( 26857 PWs)   bands (ev):

   -15.5056 -15.4948 -14.7067 -14.6678 -13.4616 -13.3951 -12.9140 -12.9106
   -12.0904 -12.0766 -11.8549 -11.7934 -10.8436 -10.8163  -9.4852  -9.4816
    -8.7253  -8.6698  -8.3807  -8.3705  -8.1342  -8.0275  -6.7736  -6.6755
    -6.5179  -6.3514  -5.9722  -5.9142  -4.9186  -4.8729  -4.7718  -4.7065
    -4.4870  -4.4386  -4.4164  -4.3872  -3.9086  -3.8444  -3.5149  -3.5041
    -3.4386  -3.3736  -3.3266  -3.2518  -2.9571  -2.9298  -2.6747  -2.6219
    -2.4929  -2.4517  -1.9188  -1.8286  -1.5625  -1.5268  -1.3408  -1.3061
    -1.1538  -1.0420  -0.9756  -0.9391  -0.0480   0.0162   0.2363   0.3144
     1.4227   1.5387

     occupation numbers 
     1.0000   1.0000   1.0000   1.0000   1.0000   1.0000   1.0000   1.0000
     1.0000   1.0000   1.0000   1.0000   1.0000   1.0000   1.0000   1.0000
     1.0000   1.0000   1.0000   1.0000   1.0000   1.0000   1.0000   1.0000
     1.0000   1.0000   1.0000   1.0000   1.0000   1.0000   1.0000   1.0000
     1.0000   1.0000   1.0000   1.0000   1.0000   1.0000   1.0000   1.0000
     1.0000   1.0000   1.0000   1.0000   1.0000   1.0000   1.0000   1.0000
     1.0000   1.0000   1.0000   1.0000   1.0000   1.0000   1.0000   1.0000
     1.0000   1.0000   1.0000   1.0000   1.0000   1.0000   1.0000   1.0000
     1.0000   1.0000

          k =-0.2346-0.8381 0.1560 ( 26788 PWs)   bands (ev):

   -15.4781 -15.4780 -14.6709 -14.6709 -13.4173 -13.4172 -12.9848 -12.9848
   -12.1462 -12.1462 -11.8176 -11.8176 -10.8821 -10.8821  -9.4620  -9.4620
    -8.7159  -8.7159  -8.1861  -8.1861  -7.9830  -7.9830  -6.7524  -6.7524
    -6.3629  -6.3629  -5.8097  -5.8097  -4.8968  -4.8968  -4.8205  -4.8205
    -4.6932  -4.6931  -4.4257  -4.4257  -3.9360  -3.9360  -3.6458  -3.6457
    -3.4170  -3.4170  -3.3325  -3.3325  -2.8864  -2.8863  -2.7431  -2.7431
    -2.5081  -2.5081  -1.8509  -1.8509  -1.5320  -1.5320  -1.2905  -1.2905
    -1.0626  -1.0625  -0.7426  -0.7426   0.1428   0.1428   0.2755   0.2755
     1.6110   1.6111

     occupation numbers 
     1.0000   1.0000   1.0000   1.0000   1.0000   1.0000   1.0000   1.0000
     1.0000   1.0000   1.0000   1.0000   1.0000   1.0000   1.0000   1.0000
     1.0000   1.0000   1.0000   1.0000   1.0000   1.0000   1.0000   1.0000
     1.0000   1.0000   1.0000   1.0000   1.0000   1.0000   1.0000   1.0000
     1.0000   1.0000   1.0000   1.0000   1.0000   1.0000   1.0000   1.0000
     1.0000   1.0000   1.0000   1.0000   1.0000   1.0000   1.0000   1.0000
     1.0000   1.0000   1.0000   1.0000   1.0000   1.0000   1.0000   1.0000
     1.0000   1.0000   1.0000   1.0000   1.0000   1.0000   1.0000   1.0000
     1.0000   1.0000

     highest occupied level (ev):     1.6111

!    total energy              =    -371.53378111 Ry
     Harris-Foulkes estimate   =    -371.53378111 Ry
     estimated scf accuracy    <          3.1E-09 Ry

     The total energy is the sum of the following terms:

     one-electron contribution =    -263.97623991 Ry
     hartree contribution      =     178.23942865 Ry
     xc contribution           =    -143.71231698 Ry
     ewald contribution        =    -141.88649353 Ry
     DFT-D3 Dispersion         =      -0.19815935 Ry

     convergence has been achieved in  11 iterations

     Forces acting on atoms (cartesian axes, Ry/au):

     atom    1 type  1   force =    -0.00015682    0.00113883    0.00119651
     atom    2 type  1   force =     0.00039060    0.00469842    0.00067916
     atom    3 type  1   force =    -0.00405672   -0.00279920   -0.00185817
     atom    4 type  1   force =     0.00509408   -0.00024575    0.00038642
     atom    5 type  1   force =     0.00015682   -0.00113883   -0.00119651
     atom    6 type  1   force =    -0.00107994   -0.00351890   -0.00082959
     atom    7 type  1   force =    -0.00197328    0.00255833   -0.00042760
     atom    8 type  1   force =     0.00554485   -0.00022290    0.00121557
     atom    9 type  1   force =     0.00107994    0.00351890    0.00082959
     atom   10 type  1   force =     0.00197328   -0.00255833    0.00042760
     atom   11 type  1   force =    -0.00554485    0.00022290   -0.00121557
     atom   12 type  1   force =    -0.00039060   -0.00469842   -0.00067916
     atom   13 type  1   force =     0.00405672    0.00279920    0.00185817
     atom   14 type  1   force =    -0.00509408    0.00024575   -0.00038642
     atom   15 type  2   force =     0.00000766    0.00029863   -0.00045240
     atom   16 type  2   force =     0.00113802    0.00076506    0.00040141
     atom   17 type  2   force =    -0.00158536    0.00233036   -0.00044752
     atom   18 type  2   force =    -0.00000766   -0.00029863    0.00045240
     atom   19 type  2   force =     0.00018804    0.00022556    0.00018128
     atom   20 type  2   force =    -0.00213210   -0.00279246    0.00001845
     atom   21 type  2   force =    -0.00018804   -0.00022556   -0.00018128
     atom   22 type  2   force =     0.00213210    0.00279246   -0.00001845
     atom   23 type  2   force =    -0.00113802   -0.00076506   -0.00040141
     atom   24 type  2   force =     0.00158536   -0.00233036    0.00044752
     atom   25 type  1   force =     0.00046803    0.00158256    0.00011524
     atom   26 type  1   force =    -0.00024749    0.00305036    0.00219975
     atom   27 type  1   force =    -0.00237525   -0.00086293   -0.00204367
     atom   28 type  1   force =     0.00535509   -0.00189124    0.00040860
     atom   29 type  1   force =    -0.00046803   -0.00158256   -0.00011524
     atom   30 type  1   force =    -0.00062485   -0.00351385   -0.00316458
     atom   31 type  1   force =    -0.00321988    0.00396006    0.00131057
     atom   32 type  1   force =     0.00496370   -0.00117346   -0.00004947
     atom   33 type  1   force =     0.00062485    0.00351385    0.00316458
     atom   34 type  1   force =     0.00321988   -0.00396006   -0.00131057
     atom   35 type  1   force =    -0.00496370    0.00117346    0.00004947
     atom   36 type  1   force =     0.00024749   -0.00305036   -0.00219975
     atom   37 type  1   force =     0.00237525    0.00086293    0.00204367
     atom   38 type  1   force =    -0.00535509    0.00189124   -0.00040860
     atom   39 type  2   force =     0.00000887   -0.00015910    0.00051298
     atom   40 type  2   force =     0.00012034   -0.00031535   -0.00006926
     atom   41 type  2   force =    -0.00150068    0.00215966    0.00231427
     atom   42 type  2   force =    -0.00000887    0.00015910   -0.00051298
     atom   43 type  2   force =     0.00091272   -0.00101221   -0.00042290
     atom   44 type  2   force =    -0.00197256   -0.00079386   -0.00189486
     atom   45 type  2   force =    -0.00091272    0.00101221    0.00042290
     atom   46 type  2   force =     0.00197256    0.00079386    0.00189486
     atom   47 type  2   force =    -0.00012034    0.00031535    0.00006926
     atom   48 type  2   force =     0.00150068   -0.00215966   -0.00231427
     The non-local contrib.  to forces
     atom    1 type  1   force =    -0.00096956   -0.03818422   -0.00105898
     atom    2 type  1   force =    -0.01841142   -0.02917550    0.00135327
     atom    3 type  1   force =     0.04250380   -0.02144372   -0.00250098
     atom    4 type  1   force =    -0.01592290   -0.03860560    0.00150653
     atom    5 type  1   force =     0.00096956    0.03818422    0.00105898
     atom    6 type  1   force =    -0.01415987    0.03469561    0.00255812
     atom    7 type  1   force =     0.04610021    0.04570353   -0.00310853
     atom    8 type  1   force =    -0.01603528    0.04380088   -0.00008912
     atom    9 type  1   force =     0.01415987   -0.03469561   -0.00255812
     atom   10 type  1   force =    -0.04610021   -0.04570353    0.00310853
     atom   11 type  1   force =     0.01603528   -0.04380088    0.00008912
     atom   12 type  1   force =     0.01841142    0.02917550   -0.00135327
     atom   13 type  1   force =    -0.04250380    0.02144372    0.00250098
     atom   14 type  1   force =     0.01592290    0.03860560   -0.00150653
     atom   15 type  2   force =    -0.00001103   -0.07767985    0.00014526
     atom   16 type  2   force =     0.00030536   -0.07765271   -0.00015678
     atom   17 type  2   force =     0.06738370   -0.03903673    0.00017200
     atom   18 type  2   force =     0.00001103    0.07767985   -0.00014526
     atom   19 type  2   force =     0.00055228    0.07832820   -0.00019937
     atom   20 type  2   force =     0.06750673    0.03907574    0.00014776
     atom   21 type  2   force =    -0.00055228   -0.07832820    0.00019937
     atom   22 type  2   force =    -0.06750673   -0.03907574   -0.00014776
     atom   23 type  2   force =    -0.00030536    0.07765271    0.00015678
     atom   24 type  2   force =    -0.06738370    0.03903673   -0.00017200
     atom   25 type  1   force =    -0.00695494   -0.02483662   -0.02816375
     atom   26 type  1   force =    -0.02112474   -0.02070281   -0.02315439
     atom   27 type  1   force =     0.03589483   -0.03560790   -0.04084487
     atom   28 type  1   force =    -0.02456238   -0.02400755   -0.03155814
     atom   29 type  1   force =     0.00695494    0.02483662    0.02816375
     atom   30 type  1   force =    -0.01212131    0.02096351    0.02461109
     atom   31 type  1   force =     0.04604235    0.00659441    0.01051459
     atom   32 type  1   force =    -0.00779235    0.02622927    0.03158966
     atom   33 type  1   force =     0.01212131   -0.02096351   -0.02461109
     atom   34 type  1   force =    -0.04604235   -0.00659441   -0.01051459
     atom   35 type  1   force =     0.00779235   -0.02622927   -0.03158966
     atom   36 type  1   force =     0.02112474    0.02070281    0.02315439
     atom   37 type  1   force =    -0.03589483    0.03560790    0.04084487
     atom   38 type  1   force =     0.02456238    0.02400755    0.03155814
     atom   39 type  2   force =    -0.01583056   -0.04840768   -0.05865164
     atom   40 type  2   force =    -0.01543073   -0.04888315   -0.05922835
     atom   41 type  2   force =     0.05778447   -0.03829466   -0.03575348
     atom   42 type  2   force =     0.01583056    0.04840768    0.05865164
     atom   43 type  2   force =     0.01616128    0.04855466    0.05840637
     atom   44 type  2   force =     0.07360627    0.01049688    0.02315683
     atom   45 type  2   force =    -0.01616128   -0.04855466   -0.05840637
     atom   46 type  2   force =    -0.07360627   -0.01049688   -0.02315683
     atom   47 type  2   force =     0.01543073    0.04888315    0.05922835
     atom   48 type  2   force =    -0.05778447    0.03829466    0.03575348
     The ionic contribution  to forces
     atom    1 type  1   force =    -0.49134344    4.46022471   -0.07111273
     atom    2 type  1   force =    -1.45357556    2.08131339   -0.64130609
     atom    3 type  1   force =    -2.01047198    4.84906368   -0.89411410
     atom    4 type  1   force =    -4.94164782    2.29349551   -0.55659075
     atom    5 type  1   force =     0.49134723   -4.46022428    0.07111638
     atom    6 type  1   force =    -1.09392591   -1.30852935   -0.52913176
     atom    7 type  1   force =    -1.89187898   -3.42109758   -1.05525640
     atom    8 type  1   force =    -5.26841236   -1.35800559   -0.75819283
     atom    9 type  1   force =     1.09392865    1.30852865    0.52913427
     atom   10 type  1   force =     1.89187797    3.42109678    1.05525475
     atom   11 type  1   force =     5.26840995    1.35800513    0.75818999
     atom   12 type  1   force =     1.45357717   -2.08131343    0.64130955
     atom   13 type  1   force =     2.01047081   -4.84906297    0.89411497
     atom   14 type  1   force =     4.94164497   -2.29349463    0.55658902
     atom   15 type  2   force =    -0.25918038    2.21385584    0.02613703
     atom   16 type  2   force =    -0.42604503    2.35476723   -0.19311720
     atom   17 type  2   force =    -1.95560207    1.10024499    0.04022905
     atom   18 type  2   force =     0.25918155   -2.21385524   -0.02613730
     atom   19 type  2   force =    -0.39218987   -1.85565655   -0.42761072
     atom   20 type  2   force =    -2.25528320   -1.06374108   -0.17391453
     atom   21 type  2   force =     0.39218891    1.85565620    0.42761036
     atom   22 type  2   force =     2.25528304    1.06374059    0.17391405
     atom   23 type  2   force =     0.42604487   -2.35476711    0.19311763
     atom   24 type  2   force =     1.95560131   -1.10024484   -0.04022946
     atom   25 type  1   force =     1.38244620    2.63183622    3.36203953
     atom   26 type  1   force =    -0.74877760    1.43942149    0.74598052
     atom   27 type  1   force =    -1.04505904    3.31831936    2.07197719
     atom   28 type  1   force =    -4.78436400    2.49503695    1.02972277
     atom   29 type  1   force =    -1.38236356   -2.63183945   -3.36202240
     atom   30 type  1   force =    -1.78046824   -0.51973738   -1.84827598
     atom   31 type  1   force =    -2.86392198   -1.94420351   -4.04629558
     atom   32 type  1   force =    -5.23038408   -0.00413465   -1.62275936
     atom   33 type  1   force =     1.78049419    0.51980355    1.84833868
     atom   34 type  1   force =     2.86391110    1.94417872    4.04635756
     atom   35 type  1   force =     5.23043075    0.00423845    1.62272828
     atom   36 type  1   force =     0.74864333   -1.43945196   -0.74605413
     atom   37 type  1   force =     1.04513386   -3.31835812   -2.07201978
     atom   38 type  1   force =     4.78434155   -2.49513479   -1.02974213
     atom   39 type  2   force =     0.70688224    1.34947520    1.62731377
     atom   40 type  2   force =     0.03713582    1.56138144    1.15798252
     atom   41 type  2   force =    -1.96384198    1.25579566    0.90239276
     atom   42 type  2   force =    -0.70687582   -1.34946989   -1.62730573
     atom   43 type  2   force =    -0.87745325   -1.23815524   -1.86031758
     atom   44 type  2   force =    -2.13384412   -0.31833320   -0.61802073
     atom   45 type  2   force =     0.87745109    1.23815569    1.86031736
     atom   46 type  2   force =     2.13379593    0.31831287    0.61801746
     atom   47 type  2   force =    -0.03712666   -1.56135547   -1.15796364
     atom   48 type  2   force =     1.96381442   -1.25578199   -0.90239454
     The local contribution  to forces
     atom    1 type  1   force =     0.49201425   -4.42070643    0.07309482
     atom    2 type  1   force =     1.47135629   -2.04920445    0.64049617
     atom    3 type  1   force =     1.96607663   -4.82970820    0.89460964
     atom    4 type  1   force =     4.96066819   -2.25647056    0.55533109
     atom    5 type  1   force =    -0.49201425    4.42070643   -0.07309482
     atom    6 type  1   force =     1.10620434    1.27235086    0.52580166
     atom    7 type  1   force =     1.84601069    3.37784965    1.05775781
     atom    8 type  1   force =     5.28806162    1.31546230    0.75929728
     atom    9 type  1   force =    -1.10620434   -1.27235086   -0.52580166
     atom   10 type  1   force =    -1.84601069   -3.37784965   -1.05775781
     atom   11 type  1   force =    -5.28806162   -1.31546230   -0.75929728
     atom   12 type  1   force =    -1.47135629    2.04920445   -0.64049617
     atom   13 type  1   force =    -1.96607663    4.82970820   -0.89460964
     atom   14 type  1   force =    -4.96066819    2.25647056   -0.55533109
     atom   15 type  2   force =     0.25906925   -2.13655327   -0.02672501
     atom   16 type  2   force =     0.42680018   -2.27687158    0.19355874
     atom   17 type  2   force =     1.88694186   -1.05914155   -0.04087126
     atom   18 type  2   force =    -0.25906925    2.13655327    0.02672501
     atom   19 type  2   force =     0.39182157    1.77799159    0.42801832
     atom   20 type  2   force =     2.18594222    1.02236602    0.17362744
     atom   21 type  2   force =    -0.39182157   -1.77799159   -0.42801832
     atom   22 type  2   force =    -2.18594222   -1.02236602   -0.17362744
     atom   23 type  2   force =    -0.42680018    2.27687158   -0.19355874
     atom   24 type  2   force =    -1.88694186    1.05914155    0.04087126
     atom   25 type  1   force =    -1.37478320   -2.60550410   -3.33344501
     atom   26 type  1   force =     0.76834021   -1.41688334   -0.72207704
     atom   27 type  1   force =     1.00899098   -3.28389583   -2.03343101
     atom   28 type  1   force =     4.81204246   -2.47331641   -0.99883027
     atom   29 type  1   force =     1.37480477    2.60553653    3.33350510
     atom   30 type  1   force =     1.79132605    0.49670926    1.82192892
     atom   31 type  1   force =     2.81668152    1.94084352    4.03620552
     atom   32 type  1   force =     5.24150290   -0.02194051    1.59227887
     atom   33 type  1   force =    -1.79130675   -0.49668436   -1.82187574
     atom   34 type  1   force =    -2.81665791   -1.94074284   -4.03630406
     atom   35 type  1   force =    -5.24149897    0.02179939   -1.59215438
     atom   36 type  1   force =    -0.76839438    1.41679635    0.72206033
     atom   37 type  1   force =    -1.00898177    3.28381707    2.03340220
     atom   38 type  1   force =    -4.81209012    2.47340924    0.99875684
     atom   39 type  2   force =    -0.69104633   -1.30166494   -1.56867056
     atom   40 type  2   force =    -0.02166984   -1.51311201   -1.09911314
     atom   41 type  2   force =     1.90474287   -1.21558504   -0.86482347
     atom   42 type  2   force =     0.69105333    1.30166601    1.56867626
     atom   43 type  2   force =     0.86225196    1.18902953    1.80180166
     atom   44 type  2   force =     2.05859572    0.30716291    0.59311593
     atom   45 type  2   force =    -0.86223904   -1.18900726   -1.80182491
     atom   46 type  2   force =    -2.05860125   -0.30713895   -0.59312973
     atom   47 type  2   force =     0.02168211    1.51307604    1.09913841
     atom   48 type  2   force =    -1.90475248    1.21558511    0.86483375
     The core correction contribution to forces
     atom    1 type  1   force =     0.00001821   -0.00126598    0.00002827
     atom    2 type  1   force =     0.00092107    0.00088821   -0.00001785
     atom    3 type  1   force =    -0.00197067   -0.00166631    0.00000424
     atom    4 type  1   force =     0.00268238    0.00073562   -0.00001548
     atom    5 type  1   force =    -0.00001821    0.00126598   -0.00002827
     atom    6 type  1   force =     0.00081231   -0.00099808   -0.00002169
     atom    7 type  1   force =    -0.00201671    0.00116370    0.00005705
     atom    8 type  1   force =     0.00264087   -0.00081070    0.00001147
     atom    9 type  1   force =    -0.00081231    0.00099808    0.00002169
     atom   10 type  1   force =     0.00201671   -0.00116370   -0.00005705
     atom   11 type  1   force =    -0.00264087    0.00081070   -0.00001147
     atom   12 type  1   force =    -0.00092107   -0.00088821    0.00001785
     atom   13 type  1   force =     0.00197067    0.00166630   -0.00000424
     atom   14 type  1   force =    -0.00268238   -0.00073562    0.00001548
     atom   15 type  2   force =     0.00000000    0.00000000    0.00000000
     atom   16 type  2   force =     0.00000000    0.00000000    0.00000000
     atom   17 type  2   force =     0.00000000    0.00000000    0.00000000
     atom   18 type  2   force =     0.00000000    0.00000000    0.00000000
     atom   19 type  2   force =     0.00000000    0.00000000    0.00000000
     atom   20 type  2   force =     0.00000000    0.00000000    0.00000000
     atom   21 type  2   force =     0.00000000    0.00000000    0.00000000
     atom   22 type  2   force =     0.00000000    0.00000000    0.00000000
     atom   23 type  2   force =     0.00000000    0.00000000    0.00000000
     atom   24 type  2   force =     0.00000000    0.00000000    0.00000000
     atom   25 type  1   force =    -0.00030873   -0.00077968   -0.00093606
     atom   26 type  1   force =     0.00101523    0.00048112    0.00064735
     atom   27 type  1   force =    -0.00218407   -0.00034627   -0.00067524
     atom   28 type  1   force =     0.00277869   -0.00003029    0.00033473
     atom   29 type  1   force =     0.00030746    0.00077762    0.00093339
     atom   30 type  1   force =     0.00075538   -0.00071942   -0.00080167
     atom   31 type  1   force =    -0.00161938    0.00142913    0.00147866
     atom   32 type  1   force =     0.00246639   -0.00099451   -0.00082291
     atom   33 type  1   force =    -0.00075658    0.00071734    0.00079899
     atom   34 type  1   force =     0.00161830   -0.00142912   -0.00147774
     atom   35 type  1   force =    -0.00246801    0.00099541    0.00082233
     atom   36 type  1   force =    -0.00101086   -0.00047855   -0.00064421
     atom   37 type  1   force =     0.00218286    0.00034907    0.00067808
     atom   38 type  1   force =    -0.00277397    0.00003005   -0.00033344
     atom   39 type  2   force =     0.00000000    0.00000000    0.00000000
     atom   40 type  2   force =     0.00000000    0.00000000    0.00000000
     atom   41 type  2   force =     0.00000000    0.00000000    0.00000000
     atom   42 type  2   force =     0.00000000    0.00000000    0.00000000
     atom   43 type  2   force =     0.00000000    0.00000000    0.00000000
     atom   44 type  2   force =     0.00000000    0.00000000    0.00000000
     atom   45 type  2   force =     0.00000000    0.00000000    0.00000000
     atom   46 type  2   force =     0.00000000    0.00000000    0.00000000
     atom   47 type  2   force =     0.00000000    0.00000000    0.00000000
     atom   48 type  2   force =     0.00000000    0.00000000    0.00000000
     The Hubbard contrib.    to forces
     atom    1 type  1   force =     0.00000000    0.00000000    0.00000000
     atom    2 type  1   force =     0.00000000    0.00000000    0.00000000
     atom    3 type  1   force =     0.00000000    0.00000000    0.00000000
     atom    4 type  1   force =     0.00000000    0.00000000    0.00000000
     atom    5 type  1   force =     0.00000000    0.00000000    0.00000000
     atom    6 type  1   force =     0.00000000    0.00000000    0.00000000
     atom    7 type  1   force =     0.00000000    0.00000000    0.00000000
     atom    8 type  1   force =     0.00000000    0.00000000    0.00000000
     atom    9 type  1   force =     0.00000000    0.00000000    0.00000000
     atom   10 type  1   force =     0.00000000    0.00000000    0.00000000
     atom   11 type  1   force =     0.00000000    0.00000000    0.00000000
     atom   12 type  1   force =     0.00000000    0.00000000    0.00000000
     atom   13 type  1   force =     0.00000000    0.00000000    0.00000000
     atom   14 type  1   force =     0.00000000    0.00000000    0.00000000
     atom   15 type  2   force =     0.00000000    0.00000000    0.00000000
     atom   16 type  2   force =     0.00000000    0.00000000    0.00000000
     atom   17 type  2   force =     0.00000000    0.00000000    0.00000000
     atom   18 type  2   force =     0.00000000    0.00000000    0.00000000
     atom   19 type  2   force =     0.00000000    0.00000000    0.00000000
     atom   20 type  2   force =     0.00000000    0.00000000    0.00000000
     atom   21 type  2   force =     0.00000000    0.00000000    0.00000000
     atom   22 type  2   force =     0.00000000    0.00000000    0.00000000
     atom   23 type  2   force =     0.00000000    0.00000000    0.00000000
     atom   24 type  2   force =     0.00000000    0.00000000    0.00000000
     atom   25 type  1   force =     0.00000000    0.00000000    0.00000000
     atom   26 type  1   force =     0.00000000    0.00000000    0.00000000
     atom   27 type  1   force =     0.00000000    0.00000000    0.00000000
     atom   28 type  1   force =     0.00000000    0.00000000    0.00000000
     atom   29 type  1   force =     0.00000000    0.00000000    0.00000000
     atom   30 type  1   force =     0.00000000    0.00000000    0.00000000
     atom   31 type  1   force =     0.00000000    0.00000000    0.00000000
     atom   32 type  1   force =     0.00000000    0.00000000    0.00000000
     atom   33 type  1   force =     0.00000000    0.00000000    0.00000000
     atom   34 type  1   force =     0.00000000    0.00000000    0.00000000
     atom   35 type  1   force =     0.00000000    0.00000000    0.00000000
     atom   36 type  1   force =     0.00000000    0.00000000    0.00000000
     atom   37 type  1   force =     0.00000000    0.00000000    0.00000000
     atom   38 type  1   force =     0.00000000    0.00000000    0.00000000
     atom   39 type  2   force =     0.00000000    0.00000000    0.00000000
     atom   40 type  2   force =     0.00000000    0.00000000    0.00000000
     atom   41 type  2   force =     0.00000000    0.00000000    0.00000000
     atom   42 type  2   force =     0.00000000    0.00000000    0.00000000
     atom   43 type  2   force =     0.00000000    0.00000000    0.00000000
     atom   44 type  2   force =     0.00000000    0.00000000    0.00000000
     atom   45 type  2   force =     0.00000000    0.00000000    0.00000000
     atom   46 type  2   force =     0.00000000    0.00000000    0.00000000
     atom   47 type  2   force =     0.00000000    0.00000000    0.00000000
     atom   48 type  2   force =     0.00000000    0.00000000    0.00000000
     The SCF correction term to forces
     atom    1 type  1   force =     0.00000331   -0.00000166   -0.00000298
     atom    2 type  1   force =    -0.00001232    0.00000181    0.00000033
     atom    3 type  1   force =    -0.00000892    0.00000229    0.00000085
     atom    4 type  1   force =     0.00000909    0.00002607    0.00000152
     atom    5 type  1   force =    -0.00000331    0.00000166    0.00000298
     atom    6 type  1   force =     0.00000402    0.00000303    0.00000251
     atom    7 type  1   force =     0.00002083   -0.00000300    0.00000067
     atom    8 type  1   force =    -0.00000672    0.00001336   -0.00000044
     atom    9 type  1   force =    -0.00000402   -0.00000303   -0.00000251
     atom   10 type  1   force =    -0.00002083    0.00000300   -0.00000067
     atom   11 type  1   force =     0.00000672   -0.00001336    0.00000044
     atom   12 type  1   force =     0.00001232   -0.00000181   -0.00000033
     atom   13 type  1   force =     0.00000892   -0.00000229   -0.00000085
     atom   14 type  1   force =    -0.00000909   -0.00002607   -0.00000152
     atom   15 type  2   force =    -0.00000012    0.00000006   -0.00000080
     atom   16 type  2   force =    -0.00000099   -0.00000497   -0.00000016
     atom   17 type  2   force =     0.00000336    0.00000011    0.00000051
     atom   18 type  2   force =     0.00000012   -0.00000006    0.00000080
     atom   19 type  2   force =     0.00000121   -0.00000354   -0.00000017
     atom   20 type  2   force =    -0.00000549   -0.00000197   -0.00000068
     atom   21 type  2   force =    -0.00000121    0.00000354    0.00000017
     atom   22 type  2   force =     0.00000549    0.00000197    0.00000068
     atom   23 type  2   force =     0.00000099    0.00000497    0.00000016
     atom   24 type  2   force =    -0.00000336   -0.00000011   -0.00000051
     atom   25 type  1   force =    -0.00000328   -0.00000300    0.00000014
     atom   26 type  1   force =     0.00000445   -0.00000472   -0.00000237
     atom   27 type  1   force =     0.00002334   -0.00000232   -0.00000038
     atom   28 type  1   force =    -0.00000767   -0.00000563   -0.00001023
     atom   29 type  1   force =     0.00000328    0.00000300   -0.00000014
     atom   30 type  1   force =    -0.00001184    0.00000117   -0.00000084
     atom   31 type  1   force =    -0.00000705   -0.00000056   -0.00000208
     atom   32 type  1   force =     0.00000531   -0.00002004   -0.00002208
     atom   33 type  1   force =     0.00001184   -0.00000117    0.00000084
     atom   34 type  1   force =     0.00000705    0.00000056    0.00000208
     atom   35 type  1   force =    -0.00000531    0.00002004    0.00002208
     atom   36 type  1   force =    -0.00000445    0.00000472    0.00000237
     atom   37 type  1   force =    -0.00002334    0.00000231    0.00000038
     atom   38 type  1   force =     0.00000767    0.00000563    0.00001023
     atom   39 type  2   force =     0.00000025   -0.00000065    0.00000035
     atom   40 type  2   force =     0.00000229    0.00000227    0.00000214
     atom   41 type  2   force =    -0.00000500    0.00000320    0.00000167
     atom   42 type  2   force =    -0.00000025    0.00000065   -0.00000035
     atom   43 type  2   force =     0.00000039    0.00000366    0.00000364
     atom   44 type  2   force =     0.00000318   -0.00000123   -0.00000060
     atom   45 type  2   force =    -0.00000039   -0.00000366   -0.00000364
     atom   46 type  2   force =    -0.00000318    0.00000123    0.00000060
     atom   47 type  2   force =    -0.00000229   -0.00000227   -0.00000214
     atom   48 type  2   force =     0.00000500   -0.00000320   -0.00000167

     DFT-D3 dispersion contribution to forces:
     atom    1 type  1   force =     0.00012229    0.00107263    0.00024993
     atom    2 type  1   force =     0.00011335    0.00087495    0.00015505
     atom    3 type  1   force =    -0.00018618    0.00095341    0.00014261
     atom    4 type  1   force =    -0.00069628    0.00057365    0.00015264
     atom    5 type  1   force =    -0.00012229   -0.00107263   -0.00024994
     atom    6 type  1   force =    -0.00001348   -0.00104132   -0.00003718
     atom    7 type  1   force =    -0.00020983   -0.00105836    0.00012096
     atom    8 type  1   force =    -0.00070448   -0.00068339    0.00018779
     atom    9 type  1   force =     0.00001347    0.00104132    0.00003718
     atom   10 type  1   force =     0.00020983    0.00105836   -0.00012096
     atom   11 type  1   force =     0.00070448    0.00068339   -0.00018778
     atom   12 type  1   force =    -0.00011335   -0.00087495   -0.00015506
     atom   13 type  1   force =     0.00018618   -0.00095341   -0.00014261
     atom   14 type  1   force =     0.00069629   -0.00057365   -0.00015264
     atom   15 type  2   force =     0.00013052    0.00067615   -0.00000901
     atom   16 type  2   force =     0.00007842    0.00052715    0.00011702
     atom   17 type  2   force =    -0.00031259    0.00026361    0.00002197
     atom   18 type  2   force =    -0.00013052   -0.00067615    0.00000901
     atom   19 type  2   force =     0.00000237   -0.00043432   -0.00002697
     atom   20 type  2   force =    -0.00029244   -0.00049143    0.00015822
     atom   21 type  2   force =    -0.00000237    0.00043432    0.00002697
     atom   22 type  2   force =     0.00029244    0.00049143   -0.00015822
     atom   23 type  2   force =    -0.00007842   -0.00052715   -0.00011702
     atom   24 type  2   force =     0.00031259   -0.00026361   -0.00002197
     atom   25 type  1   force =     0.00012344    0.00088331    0.00065767
     atom   26 type  1   force =     0.00020293    0.00068116    0.00076209
     atom   27 type  1   force =     0.00000012    0.00061266    0.00089635
     atom   28 type  1   force =    -0.00056471    0.00042906    0.00070399
     atom   29 type  1   force =    -0.00012347   -0.00088329   -0.00065766
     atom   30 type  1   force =    -0.00008286   -0.00068648   -0.00056949
     atom   31 type  1   force =    -0.00038951   -0.00066497   -0.00060835
     atom   32 type  1   force =    -0.00080997   -0.00033122   -0.00026724
     atom   33 type  1   force =     0.00008285    0.00068649    0.00056950
     atom   34 type  1   force =     0.00038952    0.00066498    0.00060836
     atom   35 type  1   force =     0.00080997    0.00033123    0.00026724
     atom   36 type  1   force =    -0.00020293   -0.00068117   -0.00076210
     atom   37 type  1   force =    -0.00000012   -0.00061267   -0.00089636
     atom   38 type  1   force =     0.00056471   -0.00042906   -0.00070398
     atom   39 type  2   force =     0.00000998    0.00044215    0.00052793
     atom   40 type  2   force =     0.00009352    0.00029110    0.00030965
     atom   41 type  2   force =    -0.00019963    0.00024735    0.00050103
     atom   42 type  2   force =    -0.00000999   -0.00044215   -0.00052794
     atom   43 type  2   force =    -0.00004228   -0.00043346   -0.00032872
     atom   44 type  2   force =    -0.00036046   -0.00011740   -0.00015482
     atom   45 type  2   force =     0.00004228    0.00043346    0.00032872
     atom   46 type  2   force =     0.00036047    0.00011740    0.00015483
     atom   47 type  2   force =    -0.00009352   -0.00029111   -0.00030966
     atom   48 type  2   force =     0.00019963   -0.00024736   -0.00050104

     Total force =     0.025247     Total SCF correction =     0.000088

     DFT-D3 dispersion Force =     0.005857


     Computing stress (Cartesian axis) and pressure

          total   stress  (Ry/bohr**3)                   (kbar)     P=    0.89
  -0.00001136  -0.00000042   0.00000874         -1.67     -0.06      1.29
  -0.00000042   0.00001705   0.00000133         -0.06      2.51      0.20
   0.00000874   0.00000133   0.00001239          1.29      0.20      1.82

     kinetic stress (kbar)   6867.24     31.09    -25.27
                               31.09   7115.32   -210.91
                              -25.27   -210.91   7482.73

     local   stress (kbar) -14768.35    204.03    959.28
                              204.03  -7300.33  -5014.80
                              959.28  -5014.80    945.85

     nonloc. stress (kbar)   1190.85     -4.48      1.71
                               -4.48   1152.85     19.98
                                1.71     19.98   1118.03

     hartree stress (kbar)   5118.14     75.73   -550.64
                               75.73   2936.76   1596.86
                             -550.64   1596.86    395.00

     exc-cor stress (kbar)   -318.87     -2.81      2.04
                               -2.81   -340.84     16.09
                                2.04     16.09   -368.96

     corecor stress (kbar)  -1500.19      1.22     -0.71
                                1.22  -1490.17     -6.66
                               -0.71     -6.66  -1478.56

     ewald   stress (kbar)   3416.34   -304.48   -385.35
                             -304.48  -2061.71   3598.65
                             -385.35   3598.65  -8081.13

     hubbard stress (kbar)      0.00      0.00      0.00
                                0.00      0.00      0.00
                                0.00      0.00      0.00

     london  stress (kbar)      0.00      0.00      0.00
                                0.00      0.00      0.00
                                0.00      0.00      0.00

     DFT-D3  stress (kbar)     -6.83     -0.36      0.21
                               -0.36     -9.37      0.99
                                0.21      0.99    -11.15

     XDM     stress (kbar)      0.00      0.00      0.00
                                0.00      0.00      0.00
                                0.00      0.00      0.00

     dft-nl  stress (kbar)      0.00      0.00      0.00
                                0.00      0.00      0.00
                                0.00      0.00      0.00

     TS-vdW  stress (kbar)      0.00      0.00      0.00
                                0.00      0.00      0.00
                                0.00      0.00      0.00



     number of scf cycles    =   2
     number of bfgs steps    =   1

     enthalpy old            =    -371.5331072085 Ry
     enthalpy new            =    -371.5337600150 Ry

     CASE: enthalpy_new < enthalpy_old


     WARNING: bfgs curvature condition failed, Theta= 0.800
     new trust radius        =       0.8000000000 bohr
     new conv_thr            =       0.0000000006 Ry

     new unit-cell volume =   2964.49620 a.u.^3 (   439.29301 Ang^3 )
     density =      1.34745 g/cm^3

CELL_PARAMETERS (angstrom)
   4.759675592   2.422557938  -6.384516587
   0.637495655   5.438286048   2.354405293
   6.188504512  -3.147205964   5.794882328

ATOMIC_POSITIONS (angstrom)
C       -0.005763748   1.368666873   0.034167776
C       -1.171764367   0.721929022  -0.106752178
C       -2.369793225   1.409136370  -0.217254048
C       -3.499538446   0.749551060  -0.354473300
C        0.005763748  -1.368666873  -0.034167776
C       -1.165954508  -0.683515558  -0.141796785
C       -2.358197605  -1.331315081  -0.285546201
C       -3.493596741  -0.634464656  -0.389066708
C        1.165954508   0.683515558   0.141796785
C        2.358197605   1.331315081   0.285546201
C        3.493596741   0.634464656   0.389066708
C        1.171764367  -0.721929022   0.106752178
C        2.369793225  -1.409136370   0.217254048
C        3.499538446  -0.749551060   0.354473300
H       -0.010545626   2.430620905   0.060844877
H       -2.374817498   2.469238621  -0.190580581
H       -4.406132447   1.287173607  -0.436929307
H        0.010545626  -2.430620905  -0.060844877
H       -2.353626580  -2.391530207  -0.312155462
H       -4.395319241  -1.142546059  -0.498392690
H        2.353626580   2.391530207   0.312155462
H        4.395319241   1.142546059   0.498392690
H        2.374817498  -2.469238621   0.190580581
H        4.406132447  -1.287173607   0.436929307
C        2.973736161   4.859813266  -1.054325787
C        1.698561353   4.662354425  -1.544059231
C        0.665911898   5.376062842  -1.098372175
C       -0.576216040   5.162363925  -1.596094231
C        2.423433078   3.001027184  -2.975790433
C        1.416123759   3.707996599  -2.530650473
C        0.114934083   3.515249329  -3.022104838
C       -0.854574822   4.222535032  -2.567569792
C        3.981045481   4.152843851  -1.499465747
C        5.282234865   4.345591359  -1.008002270
C        6.251744138   3.638314736  -1.462546643
C        3.698616944   3.198495645  -2.486047515
C        4.731257127   2.484787164  -2.931735148
C        5.973394261   2.698476828  -2.434012300
H        3.187546118   5.581019091  -0.309016285
H        0.879168922   6.096092670  -0.354262024
H       -1.353650491   5.714599647  -1.246378355
H        2.209623122   2.279821359  -3.721099935
H       -0.098742579   2.795312775  -3.766067404
H       -1.842752437   4.064181428  -2.951333643
H        5.495911527   5.065527913  -0.264039705
H        7.239930658   3.796659325  -1.078772888
H        4.518000394   1.764757098  -3.675854411
H        6.750829004   2.146240868  -2.783737287



     Writing output data file wm.save/
     NEW-OLD atomic charge density approx. for the potential

     Check: negative core charge=   -0.000002

     negative rho (up, down):  9.832E-04 0.000E+00
     extrapolated charge  125.83367, renormalised to  132.00000

     total cpu time spent up to now is       50.7 secs

     Self-consistent Calculation

     iteration #  1     ecut=    64.00 Ry     beta= 0.70
     Davidson diagonalization with overlap
     ethr =  1.00E-06,  avg # of iterations = 10.8

     total cpu time spent up to now is       61.8 secs

     total energy              =    -369.83737432 Ry
     Harris-Foulkes estimate   =    -382.33111181 Ry
     estimated scf accuracy    <       1.62861390 Ry

     iteration #  2     ecut=    64.00 Ry     beta= 0.70
     Davidson diagonalization with overlap
     ethr =  1.23E-03,  avg # of iterations =  4.0

     total cpu time spent up to now is       64.4 secs

     total energy              =    -370.57106533 Ry
     Harris-Foulkes estimate   =    -372.53723418 Ry
     estimated scf accuracy    <       5.07128260 Ry

     iteration #  3     ecut=    64.00 Ry     beta= 0.70
     Davidson diagonalization with overlap
     ethr =  1.23E-03,  avg # of iterations =  4.0

     total cpu time spent up to now is       66.5 secs

     total energy              =    -371.23733453 Ry
     Harris-Foulkes estimate   =    -371.36045287 Ry
     estimated scf accuracy    <       0.28526825 Ry

     iteration #  4     ecut=    64.00 Ry     beta= 0.70
     Davidson diagonalization with overlap
     ethr =  2.16E-04,  avg # of iterations =  3.0

     total cpu time spent up to now is       68.3 secs

     total energy              =    -371.25611396 Ry
     Harris-Foulkes estimate   =    -371.29664468 Ry
     estimated scf accuracy    <       0.10900872 Ry

     iteration #  5     ecut=    64.00 Ry     beta= 0.70
     Davidson diagonalization with overlap
     ethr =  8.26E-05,  avg # of iterations =  3.0

     total cpu time spent up to now is       70.1 secs

     total energy              =    -371.26948935 Ry
     Harris-Foulkes estimate   =    -371.27218541 Ry
     estimated scf accuracy    <       0.00534220 Ry

     iteration #  6     ecut=    64.00 Ry     beta= 0.70
     Davidson diagonalization with overlap
     ethr =  4.05E-06,  avg # of iterations =  3.9

     total cpu time spent up to now is       72.3 secs

     total energy              =    -371.27119170 Ry
     Harris-Foulkes estimate   =    -371.27136200 Ry
     estimated scf accuracy    <       0.00058429 Ry

     iteration #  7     ecut=    64.00 Ry     beta= 0.70
     Davidson diagonalization with overlap
     ethr =  4.43E-07,  avg # of iterations =  3.0

     total cpu time spent up to now is       74.0 secs

     total energy              =    -371.27120663 Ry
     Harris-Foulkes estimate   =    -371.27126719 Ry
     estimated scf accuracy    <       0.00017379 Ry

     iteration #  8     ecut=    64.00 Ry     beta= 0.70
     Davidson diagonalization with overlap
     ethr =  1.32E-07,  avg # of iterations =  3.0

     total cpu time spent up to now is       75.7 secs

     total energy              =    -371.27122008 Ry
     Harris-Foulkes estimate   =    -371.27122851 Ry
     estimated scf accuracy    <       0.00001834 Ry

     iteration #  9     ecut=    64.00 Ry     beta= 0.70
     Davidson diagonalization with overlap
     ethr =  1.39E-08,  avg # of iterations =  3.0

     total cpu time spent up to now is       77.6 secs

     total energy              =    -371.27122419 Ry
     Harris-Foulkes estimate   =    -371.27122466 Ry
     estimated scf accuracy    <       0.00000093 Ry

     iteration # 10     ecut=    64.00 Ry     beta= 0.70
     Davidson diagonalization with overlap
     ethr =  7.04E-10,  avg # of iterations =  4.0

     total cpu time spent up to now is       79.7 secs

     total energy              =    -371.27122441 Ry
     Harris-Foulkes estimate   =    -371.27122450 Ry
     estimated scf accuracy    <       0.00000019 Ry

     iteration # 11     ecut=    64.00 Ry     beta= 0.70
     Davidson diagonalization with overlap
     ethr =  1.43E-10,  avg # of iterations =  3.0

     total cpu time spent up to now is       81.6 secs

     total energy              =    -371.27122445 Ry
     Harris-Foulkes estimate   =    -371.27122446 Ry
     estimated scf accuracy    <       0.00000002 Ry

     iteration # 12     ecut=    64.00 Ry     beta= 0.70
     Davidson diagonalization with overlap
     ethr =  1.77E-11,  avg # of iterations =  3.2

     total cpu time spent up to now is       83.5 secs

     total energy              =    -371.27122446 Ry
     Harris-Foulkes estimate   =    -371.27122446 Ry
     estimated scf accuracy    <          2.3E-09 Ry

     iteration # 13     ecut=    64.00 Ry     beta= 0.70
     Davidson diagonalization with overlap
     ethr =  1.75E-12,  avg # of iterations =  3.0

     total cpu time spent up to now is       85.5 secs

     End of self-consistent calculation

          k = 0.3446 0.1796 0.1006 ( 26843 PWs)   bands (ev):

   -15.9855 -15.8643 -15.1079 -15.0057 -13.7338 -13.6307 -13.1945 -13.1244
   -12.2969 -12.2403 -11.9949 -11.8427 -10.8683 -10.7916  -9.5083  -9.4395
    -8.8012  -8.7546  -8.5786  -8.5308  -8.0462  -7.9644  -6.8133  -6.6580
    -6.5766  -6.4816  -6.1049  -6.0534  -4.7893  -4.7506  -4.5936  -4.5459
    -4.4799  -4.4535  -4.4307  -4.2724  -3.9560  -3.7913  -3.6262  -3.4314
    -3.3661  -3.2721  -3.1892  -3.0667  -2.7806  -2.7353  -2.6618  -2.5481
    -2.3787  -2.2270  -1.7353  -1.6579  -1.4025  -1.2915  -1.2335  -1.1103
    -1.0677  -0.9931  -0.9464  -0.8276  -0.0495   0.1709   0.4004   0.5061
     1.6592   1.8127

     occupation numbers 
     1.0000   1.0000   1.0000   1.0000   1.0000   1.0000   1.0000   1.0000
     1.0000   1.0000   1.0000   1.0000   1.0000   1.0000   1.0000   1.0000
     1.0000   1.0000   1.0000   1.0000   1.0000   1.0000   1.0000   1.0000
     1.0000   1.0000   1.0000   1.0000   1.0000   1.0000   1.0000   1.0000
     1.0000   1.0000   1.0000   1.0000   1.0000   1.0000   1.0000   1.0000
     1.0000   1.0000   1.0000   1.0000   1.0000   1.0000   1.0000   1.0000
     1.0000   1.0000   1.0000   1.0000   1.0000   1.0000   1.0000   1.0000
     1.0000   1.0000   1.0000   1.0000   1.0000   1.0000   1.0000   1.0000
     1.0000   1.0000

          k =-0.0511 0.3292-0.1377 ( 26841 PWs)   bands (ev):

   -15.9897 -15.8611 -15.0971 -15.0101 -13.7383 -13.6479 -13.1966 -13.1232
   -12.2894 -12.2404 -11.9825 -11.8114 -10.8770 -10.7979  -9.5437  -9.4872
    -8.8030  -8.7332  -8.5766  -8.5314  -8.0017  -7.9817  -6.7316  -6.6185
    -6.5614  -6.5154  -6.1291  -6.0567  -4.9136  -4.8321  -4.6211  -4.5311
    -4.4503  -4.4450  -4.3502  -4.2719  -3.8967  -3.7484  -3.6251  -3.4565
    -3.3743  -3.2512  -3.1112  -3.0345  -2.8365  -2.7660  -2.6766  -2.6266
    -2.4659  -2.3498  -1.6351  -1.5893  -1.4107  -1.2103  -1.1456  -1.1403
    -1.0505  -1.0472  -0.9495  -0.8126  -0.0368   0.1481   0.3463   0.5166
     1.6906   1.8033

     occupation numbers 
     1.0000   1.0000   1.0000   1.0000   1.0000   1.0000   1.0000   1.0000
     1.0000   1.0000   1.0000   1.0000   1.0000   1.0000   1.0000   1.0000
[...]
     atom   17 type  2   force =     0.00000000    0.00000000    0.00000000
     atom   18 type  2   force =     0.00000000    0.00000000    0.00000000
     atom   19 type  2   force =     0.00000000    0.00000000    0.00000000
     atom   20 type  2   force =     0.00000000    0.00000000    0.00000000
     atom   21 type  2   force =     0.00000000    0.00000000    0.00000000
     atom   22 type  2   force =     0.00000000    0.00000000    0.00000000
     atom   23 type  2   force =     0.00000000    0.00000000    0.00000000
     atom   24 type  2   force =     0.00000000    0.00000000    0.00000000
     atom   25 type  1   force =    -0.00027706   -0.00080830   -0.00092850
     atom   26 type  1   force =     0.00094187    0.00054186    0.00078322
     atom   27 type  1   force =    -0.00225963   -0.00041294   -0.00071880
     atom   28 type  1   force =     0.00297276   -0.00003836    0.00041543
     atom   29 type  1   force =     0.00027578    0.00080625    0.00092581
     atom   30 type  1   force =     0.00075068   -0.00080941   -0.00088890
     atom   31 type  1   force =    -0.00170904    0.00146461    0.00154468
     atom   32 type  1   force =     0.00261040   -0.00111455   -0.00087708
     atom   33 type  1   force =    -0.00075189    0.00080735    0.00088621
     atom   34 type  1   force =     0.00170798   -0.00146459   -0.00154374
     atom   35 type  1   force =    -0.00261204    0.00111544    0.00087644
     atom   36 type  1   force =    -0.00093750   -0.00053934   -0.00078006
     atom   37 type  1   force =     0.00225841    0.00041572    0.00072166
     atom   38 type  1   force =    -0.00296799    0.00003812   -0.00041409
     atom   39 type  2   force =     0.00000000    0.00000000    0.00000000
     atom   40 type  2   force =     0.00000000    0.00000000    0.00000000
     atom   41 type  2   force =     0.00000000    0.00000000    0.00000000
     atom   42 type  2   force =     0.00000000    0.00000000    0.00000000
     atom   43 type  2   force =     0.00000000    0.00000000    0.00000000
     atom   44 type  2   force =     0.00000000    0.00000000    0.00000000
     atom   45 type  2   force =     0.00000000    0.00000000    0.00000000
     atom   46 type  2   force =     0.00000000    0.00000000    0.00000000
     atom   47 type  2   force =     0.00000000    0.00000000    0.00000000
     atom   48 type  2   force =     0.00000000    0.00000000    0.00000000
     The Hubbard contrib.    to forces
     atom    1 type  1   force =     0.00000000    0.00000000    0.00000000
     atom    2 type  1   force =     0.00000000    0.00000000    0.00000000
     atom    3 type  1   force =     0.00000000    0.00000000    0.00000000
     atom    4 type  1   force =     0.00000000    0.00000000    0.00000000
     atom    5 type  1   force =     0.00000000    0.00000000    0.00000000
     atom    6 type  1   force =     0.00000000    0.00000000    0.00000000
     atom    7 type  1   force =     0.00000000    0.00000000    0.00000000
     atom    8 type  1   force =     0.00000000    0.00000000    0.00000000
     atom    9 type  1   force =     0.00000000    0.00000000    0.00000000
     atom   10 type  1   force =     0.00000000    0.00000000    0.00000000
     atom   11 type  1   force =     0.00000000    0.00000000    0.00000000
     atom   12 type  1   force =     0.00000000    0.00000000    0.00000000
     atom   13 type  1   force =     0.00000000    0.00000000    0.00000000
     atom   14 type  1   force =     0.00000000    0.00000000    0.00000000
     atom   15 type  2   force =     0.00000000    0.00000000    0.00000000
     atom   16 type  2   force =     0.00000000    0.00000000    0.00000000
     atom   17 type  2   force =     0.00000000    0.00000000    0.00000000
     atom   18 type  2   force =     0.00000000    0.00000000    0.00000000
     atom   19 type  2   force =     0.00000000    0.00000000    0.00000000
     atom   20 type  2   force =     0.00000000    0.00000000    0.00000000
     atom   21 type  2   force =     0.00000000    0.00000000    0.00000000
     atom   22 type  2   force =     0.00000000    0.00000000    0.00000000
     atom   23 type  2   force =     0.00000000    0.00000000    0.00000000
     atom   24 type  2   force =     0.00000000    0.00000000    0.00000000
     atom   25 type  1   force =     0.00000000    0.00000000    0.00000000
     atom   26 type  1   force =     0.00000000    0.00000000    0.00000000
     atom   27 type  1   force =     0.00000000    0.00000000    0.00000000
     atom   28 type  1   force =     0.00000000    0.00000000    0.00000000
     atom   29 type  1   force =     0.00000000    0.00000000    0.00000000
     atom   30 type  1   force =     0.00000000    0.00000000    0.00000000
     atom   31 type  1   force =     0.00000000    0.00000000    0.00000000
     atom   32 type  1   force =     0.00000000    0.00000000    0.00000000
     atom   33 type  1   force =     0.00000000    0.00000000    0.00000000
     atom   34 type  1   force =     0.00000000    0.00000000    0.00000000
     atom   35 type  1   force =     0.00000000    0.00000000    0.00000000
     atom   36 type  1   force =     0.00000000    0.00000000    0.00000000
     atom   37 type  1   force =     0.00000000    0.00000000    0.00000000
     atom   38 type  1   force =     0.00000000    0.00000000    0.00000000
     atom   39 type  2   force =     0.00000000    0.00000000    0.00000000
     atom   40 type  2   force =     0.00000000    0.00000000    0.00000000
     atom   41 type  2   force =     0.00000000    0.00000000    0.00000000
     atom   42 type  2   force =     0.00000000    0.00000000    0.00000000
     atom   43 type  2   force =     0.00000000    0.00000000    0.00000000
     atom   44 type  2   force =     0.00000000    0.00000000    0.00000000
     atom   45 type  2   force =     0.00000000    0.00000000    0.00000000
     atom   46 type  2   force =     0.00000000    0.00000000    0.00000000
     atom   47 type  2   force =     0.00000000    0.00000000    0.00000000
     atom   48 type  2   force =     0.00000000    0.00000000    0.00000000
     The SCF correction term to forces
     atom    1 type  1   force =     0.00000037    0.00000078   -0.00000006
     atom    2 type  1   force =    -0.00000092    0.00000002    0.00000039
     atom    3 type  1   force =    -0.00000078   -0.00000048    0.00000047
     atom    4 type  1   force =     0.00000007   -0.00000028    0.00000040
     atom    5 type  1   force =    -0.00000037   -0.00000078    0.00000006
     atom    6 type  1   force =    -0.00000188   -0.00000098    0.00000041
     atom    7 type  1   force =    -0.00000062   -0.00000041    0.00000058
     atom    8 type  1   force =     0.00000107   -0.00000062    0.00000044
     atom    9 type  1   force =     0.00000188    0.00000098   -0.00000041
     atom   10 type  1   force =     0.00000062    0.00000041   -0.00000058
     atom   11 type  1   force =    -0.00000107    0.00000062   -0.00000044
     atom   12 type  1   force =     0.00000092   -0.00000002   -0.00000039
     atom   13 type  1   force =     0.00000078    0.00000048   -0.00000047
     atom   14 type  1   force =    -0.00000007    0.00000028   -0.00000040
     atom   15 type  2   force =     0.00000015    0.00000006   -0.00000001
     atom   16 type  2   force =    -0.00000006   -0.00000010    0.00000017
     atom   17 type  2   force =     0.00000001   -0.00000009    0.00000009
     atom   18 type  2   force =    -0.00000015   -0.00000006    0.00000001
     atom   19 type  2   force =    -0.00000012    0.00000031    0.00000014
     atom   20 type  2   force =     0.00000006   -0.00000011    0.00000007
     atom   21 type  2   force =     0.00000012   -0.00000031   -0.00000014
     atom   22 type  2   force =    -0.00000006    0.00000011   -0.00000007
     atom   23 type  2   force =     0.00000006    0.00000010   -0.00000017
     atom   24 type  2   force =    -0.00000001    0.00000009   -0.00000009
     atom   25 type  1   force =     0.00000045    0.00000000   -0.00000025
     atom   26 type  1   force =     0.00000008    0.00000035   -0.00000020
     atom   27 type  1   force =     0.00000146    0.00000037   -0.00000027
     atom   28 type  1   force =     0.00000208    0.00000059    0.00000012
     atom   29 type  1   force =    -0.00000045   -0.00000000    0.00000025
     atom   30 type  1   force =    -0.00000008   -0.00000023   -0.00000058
     atom   31 type  1   force =     0.00000139   -0.00000009   -0.00000069
     atom   32 type  1   force =     0.00000159   -0.00000067   -0.00000157
     atom   33 type  1   force =     0.00000008    0.00000023    0.00000058
     atom   34 type  1   force =    -0.00000139    0.00000009    0.00000069
     atom   35 type  1   force =    -0.00000159    0.00000067    0.00000157
     atom   36 type  1   force =    -0.00000008   -0.00000035    0.00000020
     atom   37 type  1   force =    -0.00000146   -0.00000037    0.00000027
     atom   38 type  1   force =    -0.00000208   -0.00000059   -0.00000012
     atom   39 type  2   force =     0.00000003   -0.00000004   -0.00000018
     atom   40 type  2   force =     0.00000015   -0.00000008   -0.00000035
     atom   41 type  2   force =    -0.00000003    0.00000025    0.00000019
     atom   42 type  2   force =    -0.00000003    0.00000004    0.00000018
     atom   43 type  2   force =     0.00000024    0.00000015    0.00000011
     atom   44 type  2   force =    -0.00000001   -0.00000007   -0.00000030
     atom   45 type  2   force =    -0.00000024   -0.00000015   -0.00000011
     atom   46 type  2   force =     0.00000001    0.00000007    0.00000030
     atom   47 type  2   force =    -0.00000015    0.00000008    0.00000035
     atom   48 type  2   force =     0.00000003   -0.00000025   -0.00000019

     DFT-D3 dispersion contribution to forces:
     atom    1 type  1   force =     0.00012238    0.00105287    0.00025159
     atom    2 type  1   force =     0.00011898    0.00086891    0.00015609
     atom    3 type  1   force =    -0.00018040    0.00095426    0.00013525
     atom    4 type  1   force =    -0.00068619    0.00058041    0.00013686
     atom    5 type  1   force =    -0.00012238   -0.00105287   -0.00025160
     atom    6 type  1   force =    -0.00000537   -0.00103508   -0.00002316
     atom    7 type  1   force =    -0.00021232   -0.00104810    0.00011872
     atom    8 type  1   force =    -0.00069769   -0.00068759    0.00018073
     atom    9 type  1   force =     0.00000536    0.00103508    0.00002316
     atom   10 type  1   force =     0.00021232    0.00104810   -0.00011872
     atom   11 type  1   force =     0.00069769    0.00068759   -0.00018073
     atom   12 type  1   force =    -0.00011898   -0.00086891   -0.00015609
     atom   13 type  1   force =     0.00018040   -0.00095426   -0.00013525
     atom   14 type  1   force =     0.00068619   -0.00058041   -0.00013686
     atom   15 type  2   force =     0.00012886    0.00067744   -0.00000983
     atom   16 type  2   force =     0.00007838    0.00053925    0.00010582
     atom   17 type  2   force =    -0.00031679    0.00025875   -0.00000682
     atom   18 type  2   force =    -0.00012886   -0.00067744    0.00000982
     atom   19 type  2   force =     0.00000589   -0.00044631   -0.00002439
     atom   20 type  2   force =    -0.00028767   -0.00048173    0.00015233
     atom   21 type  2   force =    -0.00000589    0.00044631    0.00002440
     atom   22 type  2   force =     0.00028767    0.00048173   -0.00015233
     atom   23 type  2   force =    -0.00007837   -0.00053925   -0.00010582
     atom   24 type  2   force =     0.00031679   -0.00025875    0.00000683
     atom   25 type  1   force =     0.00012102    0.00087251    0.00064276
     atom   26 type  1   force =     0.00020931    0.00066479    0.00076632
     atom   27 type  1   force =    -0.00000353    0.00060714    0.00088817
     atom   28 type  1   force =    -0.00055582    0.00043574    0.00070326
     atom   29 type  1   force =    -0.00012104   -0.00087250   -0.00064275
     atom   30 type  1   force =    -0.00007794   -0.00068456   -0.00056535
     atom   31 type  1   force =    -0.00038473   -0.00066019   -0.00061547
     atom   32 type  1   force =    -0.00080040   -0.00032390   -0.00028408
     atom   33 type  1   force =     0.00007793    0.00068457    0.00056535
     atom   34 type  1   force =     0.00038474    0.00066019    0.00061548
     atom   35 type  1   force =     0.00080041    0.00032391    0.00028408
     atom   36 type  1   force =    -0.00020931   -0.00066479   -0.00076634
     atom   37 type  1   force =     0.00000353   -0.00060715   -0.00088817
     atom   38 type  1   force =     0.00055582   -0.00043574   -0.00070325
     atom   39 type  2   force =     0.00001267    0.00044089    0.00052968
     atom   40 type  2   force =     0.00009937    0.00029575    0.00032419
     atom   41 type  2   force =    -0.00019567    0.00024399    0.00049010
     atom   42 type  2   force =    -0.00001268   -0.00044089   -0.00052969
     atom   43 type  2   force =    -0.00004415   -0.00043177   -0.00034600
     atom   44 type  2   force =    -0.00036080   -0.00009112   -0.00016970
     atom   45 type  2   force =     0.00004415    0.00043177    0.00034600
     atom   46 type  2   force =     0.00036081    0.00009112    0.00016970
     atom   47 type  2   force =    -0.00009937   -0.00029576   -0.00032420
     atom   48 type  2   force =     0.00019568   -0.00024399   -0.00049010

     Total force =     0.004407     Total SCF correction =     0.000007

     DFT-D3 dispersion Force =     0.005825


     Computing stress (Cartesian axis) and pressure

          total   stress  (Ry/bohr**3)                   (kbar)     P=    0.29
   0.00000133  -0.00000168   0.00000178          0.20     -0.25      0.26
  -0.00000168   0.00000163  -0.00000093         -0.25      0.24     -0.14
   0.00000178  -0.00000093   0.00000301          0.26     -0.14      0.44

     kinetic stress (kbar)   6836.72     32.70    -28.99
                               32.70   7081.84   -206.39
                              -28.99   -206.39   7441.84

     local   stress (kbar) -14742.58    240.60    908.91
                              240.60  -7244.60  -4918.58
                              908.91  -4918.58    843.05

     nonloc. stress (kbar)   1185.31     -4.72      2.10
                               -4.72   1147.13     19.51
                                2.10     19.51   1113.08

     hartree stress (kbar)   5111.20     67.18   -539.18
                               67.18   2923.64   1568.66
                             -539.18   1568.66    428.78

     exc-cor stress (kbar)   -317.17     -2.96      2.25
                               -2.96   -339.29     15.74
                                2.25     15.74   -366.83

     corecor stress (kbar)  -1493.12      1.30     -0.80
                                1.30  -1482.97     -6.49
                               -0.80     -6.49  -1471.65

     ewald   stress (kbar)   3426.58   -333.97   -344.26
                             -333.97  -2076.21   3526.44
                             -344.26   3526.44  -7976.76

     hubbard stress (kbar)      0.00      0.00      0.00
                                0.00      0.00      0.00
                                0.00      0.00      0.00

     london  stress (kbar)      0.00      0.00      0.00
                                0.00      0.00      0.00
                                0.00      0.00      0.00

     DFT-D3  stress (kbar)     -6.75     -0.38      0.23
                               -0.38     -9.31      0.97
                                0.23      0.97    -11.06

     XDM     stress (kbar)      0.00      0.00      0.00
                                0.00      0.00      0.00
                                0.00      0.00      0.00

     dft-nl  stress (kbar)      0.00      0.00      0.00
                                0.00      0.00      0.00
                                0.00      0.00      0.00

     TS-vdW  stress (kbar)      0.00      0.00      0.00
                                0.00      0.00      0.00
                                0.00      0.00      0.00



     Writing output data file wm.save/
 
     init_run     :      3.66s CPU      3.97s WALL (       2 calls)
     electrons    :    437.70s CPU    451.22s WALL (      16 calls)
     update_pot   :      9.91s CPU      9.99s WALL (      14 calls)
     forces       :    141.92s CPU    143.19s WALL (      16 calls)
     stress       :    167.91s CPU    168.57s WALL (      16 calls)

     Called by init_run:
     wfcinit      :      1.75s CPU      1.81s WALL (       2 calls)
     wfcinit:atom :      0.02s CPU      0.02s WALL (      18 calls)
     wfcinit:wfcr :      1.63s CPU      1.69s WALL (      18 calls)
     potinit      :      0.51s CPU      0.52s WALL (       2 calls)
     hinit0       :      0.93s CPU      1.14s WALL (       2 calls)

     Called by electrons:
     c_bands      :    296.70s CPU    304.82s WALL (     178 calls)
     sum_band     :     39.22s CPU     40.63s WALL (     178 calls)
     v_of_rho     :      5.35s CPU      5.67s WALL (     185 calls)
     v_h          :      0.46s CPU      0.51s WALL (     185 calls)
     v_xc         :      5.73s CPU      6.08s WALL (     217 calls)
     newd         :      5.38s CPU      5.50s WALL (     185 calls)
     mix_rho      :      0.91s CPU      0.98s WALL (     178 calls)

     Called by c_bands:
     init_us_2    :      5.92s CPU      6.03s WALL (    3510 calls)
     cegterg      :    285.42s CPU    293.38s WALL (    1602 calls)

     Called by sum_band:
     sum_band:bec :      0.19s CPU      0.20s WALL (    1602 calls)
     addusdens    :      5.36s CPU      5.43s WALL (     178 calls)

     Called by *egterg:
     h_psi        :    159.60s CPU    165.20s WALL (    7002 calls)
     s_psi        :     12.92s CPU     13.01s WALL (    7002 calls)
     g_psi        :      0.59s CPU      0.59s WALL (    5382 calls)
     cdiaghg      :     66.95s CPU     68.55s WALL (    6777 calls)
     cegterg:over :     19.60s CPU     19.77s WALL (    5382 calls)
     cegterg:upda :     14.91s CPU     15.21s WALL (    5382 calls)
     cegterg:last :      5.85s CPU      6.07s WALL (    1647 calls)
     cdiaghg:chol :      7.25s CPU      7.65s WALL (    6777 calls)
     cdiaghg:inve :      3.29s CPU      3.31s WALL (    6777 calls)
     cdiaghg:para :      3.55s CPU      3.90s WALL (   13554 calls)

     Called by h_psi:
     h_psi:pot    :    158.38s CPU    163.95s WALL (    7002 calls)
     h_psi:calbec :     17.07s CPU     18.67s WALL (    7002 calls)
     vloc_psi     :    128.24s CPU    132.14s WALL (    7002 calls)
     add_vuspsi   :     13.00s CPU     13.09s WALL (    7002 calls)

     General routines
     calbec       :     28.03s CPU     30.39s WALL (    9324 calls)
     fft          :      7.31s CPU      8.10s WALL (    2796 calls)
     ffts         :      0.23s CPU      0.26s WALL (     363 calls)
     fftw         :    138.96s CPU    143.11s WALL (  729538 calls)
     interpolate  :      0.45s CPU      0.50s WALL (     185 calls)
 
     Parallel routines
     fft_scatt_xy :     15.31s CPU     15.75s WALL (  732697 calls)
     fft_scatt_yz :     71.38s CPU     73.97s WALL (  732697 calls)
 
     PWSCF        :  12m42.89s CPU  13m 5.53s WALL

 
   This run was terminated on:  15:49:12  22Jul2020            

=------------------------------------------------------------------------------=
   JOB DONE.
=------------------------------------------------------------------------------=
