
     Program PWSCF v.6.4.1 starts on 22Jul2020 at 15:30:52 

     This program is part of the open-source Quantum ESPRESSO suite
     for quantum simulation of materials; please cite
         "P. Giannozzi et al., J. Phys.:Condens. Matter 21 395502 (2009);
         "P. Giannozzi et al., J. Phys.:Condens. Matter 29 465901 (2017);
          URL http://www.quantum-espresso.org", 
     in publications or presentations arising from this work. More details at
     http://www.quantum-espresso.org/quote

     Parallel version (MPI), running on    36 processors

     MPI processes distributed on     1 nodes
     R & G space division:  proc/nbgrp/npool/nimage =      36
     Waiting for input...
     Reading input from standard input

     Current dimensions of program PWSCF are:
     Max number of different atomic species (ntypx) = 10
     Max number of k-points (npk) =  40000
     Max angular momentum in pseudopotentials (lmaxx) =  3

     IMPORTANT: XC functional enforced from input :
     Exchange-correlation      = PBE ( 1  4  3  4 0 0)
     Any further DFT definition will be discarded
     Please, verify this is what you really want


     --------------------------------------------
     Parameters for DFT-D3 Dispersion Correction:
     --------------------------------------------
       Reference C6 values for interpolation: 

         atom   Coordination number   C6
         H          0.912             6.05
         H          0.000            15.18
         C          0.000            98.23
         C          0.987            86.49
         C          1.998            58.72
         C          2.999            51.56
         C          3.984            36.41

       Values used:

         atom   Coordination number  R0_AB[au]  C6      C8
         C          3.209            2.750     49.96   1444.92
         C          3.238            2.750     49.58   1434.01
         C          3.169            2.750     50.37   1456.67
         C          3.135            2.750     50.65   1464.88
         C          3.209            2.750     49.96   1444.92
         C          3.238            2.750     49.58   1434.01
         C          3.169            2.750     50.37   1456.67
         C          3.135            2.750     50.65   1464.95
         C          3.238            2.750     49.58   1434.01
         C          3.169            2.750     50.37   1456.67
         C          3.135            2.750     50.65   1464.95
         C          3.238            2.750     49.58   1434.01
         C          3.169            2.750     50.37   1456.67
         C          3.135            2.750     50.65   1464.88
         H          1.009            2.062      6.17     74.63
         H          1.008            2.062      6.17     74.63
         H          1.006            2.062      6.18     74.65
         H          1.009            2.062      6.17     74.63
         H          1.008            2.062      6.17     74.63
         H          1.006            2.062      6.18     74.65
         H          1.008            2.062      6.17     74.63
         H          1.006            2.062      6.18     74.65
         H          1.008            2.062      6.17     74.63
         H          1.006            2.062      6.18     74.65
         C          3.209            2.750     49.96   1444.92
         C          3.238            2.750     49.58   1434.01
         C          3.169            2.750     50.37   1456.67
         C          3.135            2.750     50.65   1464.95
         C          3.209            2.750     49.96   1444.92
         C          3.238            2.750     49.58   1434.01
         C          3.169            2.750     50.37   1456.67
         C          3.135            2.750     50.65   1464.88
         C          3.238            2.750     49.58   1434.01
         C          3.169            2.750     50.37   1456.67
         C          3.135            2.750     50.65   1464.88
         C          3.238            2.750     49.58   1434.01
         C          3.169            2.750     50.37   1456.67
         C          3.135            2.750     50.65   1464.95
         H          1.009            2.062      6.17     74.63
         H          1.008            2.062      6.17     74.63
         H          1.006            2.062      6.18     74.65
         H          1.009            2.062      6.17     74.63
         H          1.008            2.062      6.17     74.63
         H          1.006            2.062      6.18     74.65
         H          1.008            2.062      6.17     74.63
         H          1.006            2.062      6.18     74.65
         H          1.008            2.062      6.17     74.63
         H          1.006            2.062      6.18     74.65

         Molecular C6 ( Ry / a.u.^6 ) =     61479.71


     Subspace diagonalization in iterative solution of the eigenvalue problem:
     one sub-group per band group will be used
     scalapack distributed-memory algorithm (size of sub-group:  4*  4 procs)

     Message from routine setup:
     DEPRECATED: symmetry with ibrav=0, use correct ibrav instead
 
     Parallelization info
     --------------------
     sticks:   dense  smooth     PW     G-vecs:    dense   smooth      PW
     Min         196      87     23                20071     5947     848
     Max         197      88     24                20076     5954     858
     Sum        7081    3155    857               722659   214191   30739
 


     bravais-lattice index     =            0
     lattice parameter (alat)  =      13.8725  a.u.
     unit-cell volume          =    3095.5180 (a.u.)^3
     number of atoms/cell      =           48
     number of atomic types    =            2
     number of electrons       =       132.00
     number of Kohn-Sham states=           66
     kinetic-energy cutoff     =      64.0000  Ry
     charge density cutoff     =     576.0000  Ry
     convergence threshold     =      1.0E-08
     mixing beta               =       0.7000
     number of iterations used =            8  plain     mixing
     Exchange-correlation      = PBE ( 1  4  3  4 0 0)
     nstep                     =           50


     celldm(1)=  13.872480  celldm(2)=   0.000000  celldm(3)=   0.000000
     celldm(4)=   0.000000  celldm(5)=   0.000000  celldm(6)=   0.000000

     crystal axes: (cart. coord. in units of alat)
               a(1) = (   1.000000   0.000000   0.000000 )  
               a(2) = (   0.000000   0.803009   0.000000 )  
               a(3) = (   0.272442   0.000000   1.443945 )  

     reciprocal axes: (cart. coord. in units 2 pi/alat)
               b(1) = (  1.000000  0.000000 -0.188679 )  
               b(2) = (  0.000000  1.245316  0.000000 )  
               b(3) = (  0.000000  0.000000  0.692547 )  


     PseudoPot. # 1 for C  read from file:
     /home/ck834/qe/pseudo/C.pbe-n-rrkjus_psl.1.0.0.UPF
     MD5 check sum: 1fdd950c42eb37d8afe3dd2f8d12311e
     Pseudo is Ultrasoft + core correction, Zval =  4.0
     Generated using "atomic" code by A. Dal Corso v.6.3MaX
     Using radial grid of 1073 points,  4 beta functions with: 
                l(1) =   0
                l(2) =   0
                l(3) =   1
                l(4) =   1
     Q(r) pseudized with 0 coefficients 


     PseudoPot. # 2 for H  read from file:
     /home/ck834/qe/pseudo/H.pbe-rrkjus_psl.1.0.0.UPF
     MD5 check sum: 3f4114867bd07edc7f1424d066fc1888
     Pseudo is Ultrasoft, Zval =  1.0
     Generated using "atomic" code by A. Dal Corso v.6.3MaX
     Using radial grid of  929 points,  2 beta functions with: 
                l(1) =   0
                l(2) =   0
     Q(r) pseudized with 0 coefficients 


     atomic species   valence    mass     pseudopotential
        C              4.00    12.01100     C ( 1.00)
        H              1.00     1.00794     H ( 1.00)

      4 Sym. Ops., with inversion, found ( 2 have fractional translation)


                                    s                        frac. trans.

      isym =  1     identity                                     

 cryst.   s( 1) = (     1          0          0      )
                  (     0          1          0      )
                  (     0          0          1      )

 cart.    s( 1) = (  1.0000000  0.0000000  0.0000000 )
                  (  0.0000000  1.0000000  0.0000000 )
                  (  0.0000000  0.0000000  1.0000000 )


      isym =  2     180 deg rotation - cart. axis [0,1,0]        

 cryst.   s( 2) = (    -1          0          0      )    f =(  0.5000000 )
                  (     0          1          0      )       (  0.5000000 )
                  (     0          0         -1      )       (  0.0000000 )

 cart.    s( 2) = ( -1.0000000  0.0000000  0.0000000 )    f =(  0.5000000 )
                  (  0.0000000  1.0000000  0.0000000 )       (  0.4015044 )
                  (  0.0000000  0.0000000 -1.0000000 )       (  0.0000000 )


      isym =  3     inversion                                    

 cryst.   s( 3) = (    -1          0          0      )
                  (     0         -1          0      )
                  (     0          0         -1      )

 cart.    s( 3) = ( -1.0000000  0.0000000  0.0000000 )
                  (  0.0000000 -1.0000000  0.0000000 )
                  (  0.0000000  0.0000000 -1.0000000 )


      isym =  4     inv. 180 deg rotation - cart. axis [0,1,0]   

 cryst.   s( 4) = (     1          0          0      )    f =( -0.5000000 )
                  (     0         -1          0      )       ( -0.5000000 )
                  (     0          0          1      )       (  0.0000000 )

 cart.    s( 4) = (  1.0000000  0.0000000  0.0000000 )    f =( -0.5000000 )
                  (  0.0000000 -1.0000000  0.0000000 )       ( -0.4015044 )
                  (  0.0000000  0.0000000  1.0000000 )       (  0.0000000 )


   Cartesian axes

     site n.     atom                  positions (alat units)
         1           C   tau(   1) = (  -0.0852120   0.1709089   0.0000000  )
         2           C   tau(   2) = (  -0.0438590   0.0879676  -0.1663687  )
         3           C   tau(   3) = (  -0.0854055   0.1712970  -0.3372528  )
         4           C   tau(   4) = (  -0.0433005   0.0868474  -0.4977308  )
         5           C   tau(   5) = (   0.0852120  -0.1709089   0.0000000  )
         6           C   tau(   6) = (   0.0438590  -0.0879676  -0.1663687  )
         7           C   tau(   7) = (   0.0854055  -0.1712970  -0.3372528  )
         8           C   tau(   8) = (   0.0433005  -0.0868474  -0.4977308  )
         9           C   tau(   9) = (  -0.0438590   0.0879676   0.1663687  )
        10           C   tau(  10) = (  -0.0854055   0.1712970   0.3372528  )
        11           C   tau(  11) = (  -0.0433005   0.0868474   0.4977308  )
        12           C   tau(  12) = (   0.0438590  -0.0879676   0.1663687  )
        13           C   tau(  13) = (   0.0854055  -0.1712970   0.3372528  )
        14           C   tau(  14) = (   0.0433005  -0.0868474   0.4977308  )
        15           H   tau(  15) = (  -0.1512140   0.3032884   0.0000000  )
        16           H   tau(  16) = (  -0.1513574   0.3035761  -0.3370985  )
        17           H   tau(  17) = (  -0.0756222   0.1516746  -0.6264319  )
        18           H   tau(  18) = (   0.1512140  -0.3032884   0.0000000  )
        19           H   tau(  19) = (   0.1513574  -0.3035761  -0.3370985  )
        20           H   tau(  20) = (   0.0756222  -0.1516746  -0.6264319  )
        21           H   tau(  21) = (  -0.1513574   0.3035761   0.3370985  )
        22           H   tau(  22) = (  -0.0756222   0.1516746   0.6264319  )
        23           H   tau(  23) = (   0.1513574  -0.3035761   0.3370985  )
        24           H   tau(  24) = (   0.0756222  -0.1516746   0.6264319  )
        25           C   tau(  25) = (   0.5852120   0.5724134   0.0000000  )
        26           C   tau(  26) = (   0.5438590   0.4894721  -0.1663687  )
        27           C   tau(  27) = (   0.5854055   0.5728014  -0.3372528  )
        28           C   tau(  28) = (   0.5433005   0.4883518  -0.4977308  )
        29           C   tau(  29) = (   0.4147880   0.2305955   0.0000000  )
        30           C   tau(  30) = (   0.4561410   0.3135368  -0.1663687  )
        31           C   tau(  31) = (   0.4145945   0.2302075  -0.3372528  )
        32           C   tau(  32) = (   0.4566995   0.3146570  -0.4977308  )
        33           C   tau(  33) = (   0.5438590   0.4894721   0.1663687  )
        34           C   tau(  34) = (   0.5854055   0.5728014   0.3372528  )
        35           C   tau(  35) = (   0.5433005   0.4883518   0.4977308  )
        36           C   tau(  36) = (   0.4561410   0.3135368   0.1663687  )
        37           C   tau(  37) = (   0.4145945   0.2302075   0.3372528  )
        38           C   tau(  38) = (   0.4566995   0.3146570   0.4977308  )
        39           H   tau(  39) = (   0.6512140   0.7047928   0.0000000  )
        40           H   tau(  40) = (   0.6513574   0.7050805  -0.3370985  )
        41           H   tau(  41) = (   0.5756222   0.5531790  -0.6264319  )
        42           H   tau(  42) = (   0.3487860   0.0982161   0.0000000  )
        43           H   tau(  43) = (   0.3486426   0.0979284  -0.3370985  )
        44           H   tau(  44) = (   0.4243778   0.2498298  -0.6264319  )
        45           H   tau(  45) = (   0.6513574   0.7050805   0.3370985  )
        46           H   tau(  46) = (   0.5756222   0.5531790   0.6264319  )
        47           H   tau(  47) = (   0.3486426   0.0979284   0.3370985  )
        48           H   tau(  48) = (   0.4243778   0.2498298   0.6264319  )

   Crystallographic axes

     site n.     atom                  positions (cryst. coord.)
         1           C   tau(   1) = ( -0.0852120  0.2128357  0.0000000  )
         2           C   tau(   2) = ( -0.0124687  0.1095475 -0.1152182  )
         3           C   tau(   3) = ( -0.0217729  0.2133189 -0.2335635  )
         4           C   tau(   4) = (  0.0506110  0.1081525 -0.3447021  )
         5           C   tau(   5) = (  0.0852120 -0.2128357  0.0000000  )
         6           C   tau(   6) = (  0.0752494 -0.1095475 -0.1152182  )
         7           C   tau(   7) = (  0.1490381 -0.2133189 -0.2335635  )
         8           C   tau(   8) = (  0.1372120 -0.1081525 -0.3447021  )
         9           C   tau(   9) = ( -0.0752494  0.1095475  0.1152182  )
        10           C   tau(  10) = ( -0.1490381  0.2133189  0.2335635  )
        11           C   tau(  11) = ( -0.1372120  0.1081525  0.3447021  )
        12           C   tau(  12) = (  0.0124687 -0.1095475  0.1152182  )
        13           C   tau(  13) = (  0.0217729 -0.2133189  0.2335635  )
        14           C   tau(  14) = ( -0.0506110 -0.1081525  0.3447021  )
        15           H   tau(  15) = ( -0.1512140  0.3776899  0.0000000  )
        16           H   tau(  16) = ( -0.0877540  0.3780482 -0.2334566  )
        17           H   tau(  17) = (  0.0425725  0.1888828 -0.4338337  )
        18           H   tau(  18) = (  0.1512140 -0.3776899  0.0000000  )
        19           H   tau(  19) = (  0.2149609 -0.3780482 -0.2334566  )
        20           H   tau(  20) = (  0.1938169 -0.1888828 -0.4338337  )
        21           H   tau(  21) = ( -0.2149609  0.3780482  0.2334566  )
        22           H   tau(  22) = ( -0.1938169  0.1888828  0.4338337  )
        23           H   tau(  23) = (  0.0877540 -0.3780482  0.2334566  )
        24           H   tau(  24) = ( -0.0425725 -0.1888828  0.4338337  )
        25           C   tau(  25) = (  0.5852120  0.7128357  0.0000000  )
        26           C   tau(  26) = (  0.5752494  0.6095475 -0.1152182  )
        27           C   tau(  27) = (  0.6490381  0.7133189 -0.2335635  )
        28           C   tau(  28) = (  0.6372120  0.6081525 -0.3447021  )
        29           C   tau(  29) = (  0.4147880  0.2871643  0.0000000  )
        30           C   tau(  30) = (  0.4875313  0.3904525 -0.1152182  )
        31           C   tau(  31) = (  0.4782271  0.2866811 -0.2335635  )
        32           C   tau(  32) = (  0.5506110  0.3918475 -0.3447021  )
        33           C   tau(  33) = (  0.5124687  0.6095475  0.1152182  )
        34           C   tau(  34) = (  0.5217729  0.7133189  0.2335635  )
        35           C   tau(  35) = (  0.4493890  0.6081525  0.3447021  )
        36           C   tau(  36) = (  0.4247506  0.3904525  0.1152182  )
        37           C   tau(  37) = (  0.3509619  0.2866811  0.2335635  )
        38           C   tau(  38) = (  0.3627880  0.3918475  0.3447021  )
        39           H   tau(  39) = (  0.6512140  0.8776899  0.0000000  )
        40           H   tau(  40) = (  0.7149609  0.8780482 -0.2334566  )
        41           H   tau(  41) = (  0.6938169  0.6888828 -0.4338337  )
        42           H   tau(  42) = (  0.3487860  0.1223101  0.0000000  )
        43           H   tau(  43) = (  0.4122460  0.1219518 -0.2334566  )
        44           H   tau(  44) = (  0.5425725  0.3111172 -0.4338337  )
        45           H   tau(  45) = (  0.5877540  0.8780482  0.2334566  )
        46           H   tau(  46) = (  0.4574275  0.6888828  0.4338337  )
        47           H   tau(  47) = (  0.2850391  0.1219518  0.2334566  )
        48           H   tau(  48) = (  0.3061831  0.3111172  0.4338337  )

     number of k points=     6
                       cart. coord. in units 2pi/alat
        k(    1) = (   0.1666667   0.2075527   0.1416903), wk =   0.4444444
        k(    2) = (   0.1666667   0.2075527  -0.2045833), wk =   0.4444444
        k(    3) = (   0.1666667  -0.6226581   0.1416903), wk =   0.2222222
        k(    4) = (   0.1666667  -0.6226581  -0.2045833), wk =   0.2222222
        k(    5) = (  -0.5000000   0.2075527   0.2674764), wk =   0.4444444
        k(    6) = (  -0.5000000  -0.6226581   0.2674764), wk =   0.2222222

                       cryst. coord.
        k(    1) = (   0.1666667   0.1666667   0.2500000), wk =   0.4444444
        k(    2) = (   0.1666667   0.1666667  -0.2500000), wk =   0.4444444
        k(    3) = (   0.1666667  -0.5000000   0.2500000), wk =   0.2222222
        k(    4) = (   0.1666667  -0.5000000  -0.2500000), wk =   0.2222222
        k(    5) = (  -0.5000000   0.1666667   0.2500000), wk =   0.4444444
        k(    6) = (  -0.5000000  -0.5000000   0.2500000), wk =   0.2222222

     Dense  grid:   722659 G-vectors     FFT dimensions: ( 108,  90, 160)

     Smooth grid:   214191 G-vectors     FFT dimensions: (  72,  60, 108)

     Dynamical RAM for                 wfc:       0.75 MB

     Dynamical RAM for     wfc (w. buffer):       5.24 MB

     Dynamical RAM for           str. fact:       0.61 MB

     Dynamical RAM for           local pot:       0.00 MB

     Dynamical RAM for          nlocal pot:       2.99 MB

     Dynamical RAM for                qrad:       7.28 MB

     Dynamical RAM for          rho,v,vnew:       2.03 MB

     Dynamical RAM for               rhoin:       0.68 MB

     Dynamical RAM for            rho*nmix:       4.90 MB

     Dynamical RAM for           G-vectors:       1.19 MB

     Dynamical RAM for          h,s,v(r/c):       0.20 MB

     Dynamical RAM for          <psi|beta>:       0.27 MB

     Dynamical RAM for                 psi:       2.99 MB

     Dynamical RAM for                hpsi:       2.99 MB

     Dynamical RAM for                spsi:       2.99 MB

     Dynamical RAM for      wfcinit/wfcrot:       3.39 MB

     Dynamical RAM for           addusdens:      21.75 MB

     Dynamical RAM for          addusforce:      56.86 MB

     Dynamical RAM for         addusstress:      15.32 MB

     Estimated static dynamical RAM per process >      27.70 MB

     Estimated max dynamical RAM per process >      84.57 MB

     Estimated total dynamical RAM >       2.97 GB

     Check: negative core charge=   -0.000002

     Initial potential from superposition of free atoms

     starting charge  131.99865, renormalised to  132.00000
     Starting wfcs are  132 randomized atomic wfcs

     total cpu time spent up to now is        3.5 secs

     Self-consistent Calculation

     iteration #  1     ecut=    64.00 Ry     beta= 0.70
     Davidson diagonalization with overlap
     ethr =  1.00E-02,  avg # of iterations =  2.0

     total cpu time spent up to now is        9.5 secs

     total energy              =    -370.31962236 Ry
     Harris-Foulkes estimate   =    -373.58722758 Ry
     estimated scf accuracy    <       5.29123192 Ry

     iteration #  2     ecut=    64.00 Ry     beta= 0.70
     Davidson diagonalization with overlap
     ethr =  4.01E-03,  avg # of iterations =  2.0

     total cpu time spent up to now is       10.7 secs

     total energy              =    -371.27775132 Ry
     Harris-Foulkes estimate   =    -371.83418084 Ry
     estimated scf accuracy    <       0.91827401 Ry

     iteration #  3     ecut=    64.00 Ry     beta= 0.70
     Davidson diagonalization with overlap
     ethr =  6.96E-04,  avg # of iterations =  2.0

     total cpu time spent up to now is       11.8 secs

     total energy              =    -371.50072996 Ry
     Harris-Foulkes estimate   =    -371.56154498 Ry
     estimated scf accuracy    <       0.10377352 Ry

     iteration #  4     ecut=    64.00 Ry     beta= 0.70
     Davidson diagonalization with overlap
     ethr =  7.86E-05,  avg # of iterations =  4.0

     total cpu time spent up to now is       13.1 secs

     total energy              =    -371.51550925 Ry
     Harris-Foulkes estimate   =    -371.54072696 Ry
     estimated scf accuracy    <       0.05448911 Ry

     iteration #  5     ecut=    64.00 Ry     beta= 0.70
     Davidson diagonalization with overlap
     ethr =  4.13E-05,  avg # of iterations =  3.0

     total cpu time spent up to now is       14.2 secs

     total energy              =    -371.52875459 Ry
     Harris-Foulkes estimate   =    -371.53332318 Ry
     estimated scf accuracy    <       0.01414018 Ry

     iteration #  6     ecut=    64.00 Ry     beta= 0.70
     Davidson diagonalization with overlap
     ethr =  1.07E-05,  avg # of iterations =  3.0

     total cpu time spent up to now is       15.3 secs

     total energy              =    -371.53059699 Ry
     Harris-Foulkes estimate   =    -371.53068282 Ry
     estimated scf accuracy    <       0.00023652 Ry

     iteration #  7     ecut=    64.00 Ry     beta= 0.70
     Davidson diagonalization with overlap
     ethr =  1.79E-07,  avg # of iterations =  4.0

     total cpu time spent up to now is       16.7 secs

     total energy              =    -371.53070234 Ry
     Harris-Foulkes estimate   =    -371.53071343 Ry
     estimated scf accuracy    <       0.00003327 Ry

     iteration #  8     ecut=    64.00 Ry     beta= 0.70
     Davidson diagonalization with overlap
     ethr =  2.52E-08,  avg # of iterations =  3.0

     total cpu time spent up to now is       18.0 secs

     total energy              =    -371.53070675 Ry
     Harris-Foulkes estimate   =    -371.53071009 Ry
     estimated scf accuracy    <       0.00001138 Ry

     iteration #  9     ecut=    64.00 Ry     beta= 0.70
     Davidson diagonalization with overlap
     ethr =  8.62E-09,  avg # of iterations =  3.0

     total cpu time spent up to now is       19.1 secs

     total energy              =    -371.53070745 Ry
     Harris-Foulkes estimate   =    -371.53070802 Ry
     estimated scf accuracy    <       0.00000148 Ry

     iteration # 10     ecut=    64.00 Ry     beta= 0.70
     Davidson diagonalization with overlap
     ethr =  1.12E-09,  avg # of iterations =  3.7

     total cpu time spent up to now is       20.4 secs

     total energy              =    -371.53070785 Ry
     Harris-Foulkes estimate   =    -371.53070791 Ry
     estimated scf accuracy    <       0.00000018 Ry

     iteration # 11     ecut=    64.00 Ry     beta= 0.70
     Davidson diagonalization with overlap
     ethr =  1.39E-10,  avg # of iterations =  3.0

     total cpu time spent up to now is       21.4 secs

     End of self-consistent calculation

          k = 0.1667 0.2076 0.1417 ( 26756 PWs)   bands (ev):

   -15.5659 -15.4327 -14.7522 -14.6347 -13.5083 -13.3867 -12.9068 -12.8979
   -12.0870 -12.0738 -11.8376 -11.7933 -10.8560 -10.8531  -9.5332  -9.4029
    -8.7109  -8.7062  -8.3889  -8.3039  -8.0660  -8.0576  -6.7629  -6.6914
    -6.4824  -6.4025  -5.9777  -5.9004  -4.9636  -4.8243  -4.8000  -4.7092
    -4.6311  -4.4672  -4.4121  -4.3997  -3.8939  -3.7655  -3.5293  -3.4832
    -3.4357  -3.4053  -3.3869  -3.0764  -2.9251  -2.8947  -2.7243  -2.6999
    -2.5630  -2.2388  -1.8535  -1.6413  -1.5877  -1.5773  -1.4856  -1.2769
    -1.1965  -0.9665  -0.8987  -0.7294  -0.2769   0.1325   0.2417   0.4036
     1.1575   1.7039

     occupation numbers 
     1.0000   1.0000   1.0000   1.0000   1.0000   1.0000   1.0000   1.0000
     1.0000   1.0000   1.0000   1.0000   1.0000   1.0000   1.0000   1.0000
     1.0000   1.0000   1.0000   1.0000   1.0000   1.0000   1.0000   1.0000
     1.0000   1.0000   1.0000   1.0000   1.0000   1.0000   1.0000   1.0000
     1.0000   1.0000   1.0000   1.0000   1.0000   1.0000   1.0000   1.0000
     1.0000   1.0000   1.0000   1.0000   1.0000   1.0000   1.0000   1.0000
     1.0000   1.0000   1.0000   1.0000   1.0000   1.0000   1.0000   1.0000
     1.0000   1.0000   1.0000   1.0000   1.0000   1.0000   1.0000   1.0000
     1.0000   1.0000

          k = 0.1667 0.2076-0.2046 ( 26762 PWs)   bands (ev):

   -15.5647 -15.4339 -14.7574 -14.6293 -13.4959 -13.3993 -12.9077 -12.8970
   -12.0832 -12.0776 -11.8581 -11.7732 -10.8637 -10.8453  -9.4989  -9.4360
    -8.7310  -8.6856  -8.3886  -8.3045  -8.0700  -8.0570  -6.7502  -6.7039
    -6.4779  -6.4016  -6.0020  -5.8824  -4.9257  -4.8683  -4.7987  -4.7122
    -4.6242  -4.4323  -4.4252  -4.4140  -3.8752  -3.7858  -3.5212  -3.4798
    -3.4434  -3.4335  -3.3534  -3.0787  -2.9456  -2.8757  -2.7309  -2.7039
    -2.5845  -2.2321  -1.8113  -1.6553  -1.5903  -1.5591  -1.5070  -1.2841
    -1.1764  -0.9823  -0.9020  -0.7290  -0.2787   0.1269   0.2452   0.4093
     1.1661   1.6970

     occupation numbers 
     1.0000   1.0000   1.0000   1.0000   1.0000   1.0000   1.0000   1.0000
     1.0000   1.0000   1.0000   1.0000   1.0000   1.0000   1.0000   1.0000
     1.0000   1.0000   1.0000   1.0000   1.0000   1.0000   1.0000   1.0000
     1.0000   1.0000   1.0000   1.0000   1.0000   1.0000   1.0000   1.0000
     1.0000   1.0000   1.0000   1.0000   1.0000   1.0000   1.0000   1.0000
     1.0000   1.0000   1.0000   1.0000   1.0000   1.0000   1.0000   1.0000
     1.0000   1.0000   1.0000   1.0000   1.0000   1.0000   1.0000   1.0000
     1.0000   1.0000   1.0000   1.0000   1.0000   1.0000   1.0000   1.0000
     1.0000   1.0000

          k = 0.1667-0.6227 0.1417 ( 26782 PWs)   bands (ev):

   -15.4797 -15.4797 -14.6752 -14.6752 -13.4319 -13.4319 -12.9715 -12.9715
   -12.1458 -12.1458 -11.8091 -11.8091 -10.9140 -10.9140  -9.4420  -9.4420
    -8.7302  -8.7302  -8.1843  -8.1843  -7.9586  -7.9586  -6.7755  -6.7755
    -6.3615  -6.3615  -5.8081  -5.8081  -4.9413  -4.9413  -4.7695  -4.7695
    -4.6414  -4.6414  -4.4060  -4.4060  -3.9267  -3.9267  -3.6102  -3.6102
    -3.5428  -3.5428  -3.3961  -3.3961  -2.8407  -2.8407  -2.6926  -2.6926
    -2.6290  -2.6290  -1.6002  -1.6002  -1.5275  -1.5275  -1.1819  -1.1819
    -1.1197  -1.1197  -0.7211  -0.7211   0.1851   0.1851   0.2475   0.2475
     1.6340   1.6340

     occupation numbers 
     1.0000   1.0000   1.0000   1.0000   1.0000   1.0000   1.0000   1.0000
     1.0000   1.0000   1.0000   1.0000   1.0000   1.0000   1.0000   1.0000
     1.0000   1.0000   1.0000   1.0000   1.0000   1.0000   1.0000   1.0000
     1.0000   1.0000   1.0000   1.0000   1.0000   1.0000   1.0000   1.0000
     1.0000   1.0000   1.0000   1.0000   1.0000   1.0000   1.0000   1.0000
     1.0000   1.0000   1.0000   1.0000   1.0000   1.0000   1.0000   1.0000
     1.0000   1.0000   1.0000   1.0000   1.0000   1.0000   1.0000   1.0000
     1.0000   1.0000   1.0000   1.0000   1.0000   1.0000   1.0000   1.0000
     1.0000   1.0000

          k = 0.1667-0.6227-0.2046 ( 26776 PWs)   bands (ev):

   -15.4797 -15.4797 -14.6754 -14.6754 -13.4313 -13.4313 -12.9716 -12.9716
   -12.1452 -12.1452 -11.8098 -11.8098 -10.9154 -10.9154  -9.4401  -9.4401
    -8.7289  -8.7289  -8.1843  -8.1843  -7.9589  -7.9589  -6.7753  -6.7753
    -6.3679  -6.3679  -5.8091  -5.8091  -4.9367  -4.9367  -4.7706  -4.7706
    -4.6376  -4.6376  -4.4069  -4.4069  -3.9154  -3.9154  -3.6181  -3.6181
    -3.5456  -3.5456  -3.3924  -3.3924  -2.8456  -2.8456  -2.6860  -2.6860
    -2.6383  -2.6383  -1.6056  -1.6056  -1.5255  -1.5255  -1.1824  -1.1824
    -1.1179  -1.1179  -0.7151  -0.7151   0.1831   0.1831   0.2493   0.2493
     1.6360   1.6360

     occupation numbers 
     1.0000   1.0000   1.0000   1.0000   1.0000   1.0000   1.0000   1.0000
     1.0000   1.0000   1.0000   1.0000   1.0000   1.0000   1.0000   1.0000
     1.0000   1.0000   1.0000   1.0000   1.0000   1.0000   1.0000   1.0000
     1.0000   1.0000   1.0000   1.0000   1.0000   1.0000   1.0000   1.0000
     1.0000   1.0000   1.0000   1.0000   1.0000   1.0000   1.0000   1.0000
     1.0000   1.0000   1.0000   1.0000   1.0000   1.0000   1.0000   1.0000
     1.0000   1.0000   1.0000   1.0000   1.0000   1.0000   1.0000   1.0000
     1.0000   1.0000   1.0000   1.0000   1.0000   1.0000   1.0000   1.0000
     1.0000   1.0000

          k =-0.5000 0.2076 0.2675 ( 26745 PWs)   bands (ev):

   -15.5018 -15.4993 -14.6998 -14.6891 -13.4608 -13.4359 -12.9019 -12.9000
   -12.0835 -12.0751 -11.8359 -11.7953 -10.8630 -10.8447  -9.5018  -9.4343
    -8.7332  -8.6838  -8.3559  -8.3550  -8.0740  -8.0587  -6.7816  -6.6633
    -6.5243  -6.3703  -5.9716  -5.9291  -4.9795  -4.8469  -4.7737  -4.6809
    -4.4657  -4.4080  -4.3976  -4.3963  -3.7957  -3.7380  -3.4719  -3.4609
    -3.4533  -3.4368  -3.4249  -3.3374  -2.9616  -2.8781  -2.7729  -2.6246
    -2.5903  -2.4828  -1.7437  -1.6457  -1.5868  -1.4647  -1.2877  -1.2615
    -1.1084  -1.0995  -0.9457  -0.9306  -0.0520  -0.0434   0.2641   0.2744
     1.4017   1.4186

     occupation numbers 
     1.0000   1.0000   1.0000   1.0000   1.0000   1.0000   1.0000   1.0000
     1.0000   1.0000   1.0000   1.0000   1.0000   1.0000   1.0000   1.0000
     1.0000   1.0000   1.0000   1.0000   1.0000   1.0000   1.0000   1.0000
     1.0000   1.0000   1.0000   1.0000   1.0000   1.0000   1.0000   1.0000
     1.0000   1.0000   1.0000   1.0000   1.0000   1.0000   1.0000   1.0000
     1.0000   1.0000   1.0000   1.0000   1.0000   1.0000   1.0000   1.0000
     1.0000   1.0000   1.0000   1.0000   1.0000   1.0000   1.0000   1.0000
     1.0000   1.0000   1.0000   1.0000   1.0000   1.0000   1.0000   1.0000
     1.0000   1.0000

          k =-0.5000-0.6227 0.2675 ( 26752 PWs)   bands (ev):

   -15.4786 -15.4786 -14.6743 -14.6743 -13.4308 -13.4308 -12.9760 -12.9760
   -12.1498 -12.1498 -11.8087 -11.8087 -10.9182 -10.9182  -9.4391  -9.4391
    -8.7330  -8.7330  -8.1649  -8.1649  -7.9495  -7.9495  -6.7687  -6.7687
    -6.3661  -6.3661  -5.7935  -5.7935  -4.8719  -4.8719  -4.8530  -4.8530
    -4.7874  -4.7874  -4.4019  -4.4019  -4.0032  -4.0032  -3.6464  -3.6464
    -3.3771  -3.3771  -3.2838  -3.2838  -2.8585  -2.8585  -2.6221  -2.6221
    -2.4296  -2.4296  -1.7532  -1.7532  -1.5347  -1.5347  -1.3738  -1.3738
    -1.1299  -1.1299  -0.6607  -0.6607   0.1390   0.1390   0.2494   0.2494
     1.5864   1.5864

     occupation numbers 
     1.0000   1.0000   1.0000   1.0000   1.0000   1.0000   1.0000   1.0000
     1.0000   1.0000   1.0000   1.0000   1.0000   1.0000   1.0000   1.0000
     1.0000   1.0000   1.0000   1.0000   1.0000   1.0000   1.0000   1.0000
     1.0000   1.0000   1.0000   1.0000   1.0000   1.0000   1.0000   1.0000
     1.0000   1.0000   1.0000   1.0000   1.0000   1.0000   1.0000   1.0000
     1.0000   1.0000   1.0000   1.0000   1.0000   1.0000   1.0000   1.0000
     1.0000   1.0000   1.0000   1.0000   1.0000   1.0000   1.0000   1.0000
     1.0000   1.0000   1.0000   1.0000   1.0000   1.0000   1.0000   1.0000
     1.0000   1.0000

     highest occupied level (ev):     1.7039

!    total energy              =    -371.53070787 Ry
     Harris-Foulkes estimate   =    -371.53070787 Ry
     estimated scf accuracy    <          8.9E-09 Ry

     The total energy is the sum of the following terms:

     one-electron contribution =    -293.64968195 Ry
     hartree contribution      =     193.20457685 Ry
     xc contribution           =    -143.86684466 Ry
     ewald contribution        =    -127.01894358 Ry
     DFT-D3 Dispersion         =      -0.19981453 Ry

     convergence has been achieved in  11 iterations

     Forces acting on atoms (cartesian axes, Ry/au):

     atom    1 type  1   force =    -0.00086512    0.00191187   -0.00000128
     atom    2 type  1   force =     0.00107900   -0.00017649   -0.00534901
     atom    3 type  1   force =    -0.00016409    0.00104396    0.00962732
     atom    4 type  1   force =     0.00533859   -0.00991115   -0.00106877
     atom    5 type  1   force =     0.00086512   -0.00191187    0.00000128
     atom    6 type  1   force =    -0.00116497    0.00010241   -0.00534173
     atom    7 type  1   force =     0.00020935   -0.00092631    0.00962511
     atom    8 type  1   force =    -0.00476049    0.01013078   -0.00132733
     atom    9 type  1   force =     0.00116497   -0.00010241    0.00534173
     atom   10 type  1   force =    -0.00020935    0.00092631   -0.00962511
     atom   11 type  1   force =     0.00476049   -0.01013078    0.00132733
     atom   12 type  1   force =    -0.00107900    0.00017649    0.00534901
     atom   13 type  1   force =     0.00016409   -0.00104396   -0.00962732
     atom   14 type  1   force =    -0.00533859    0.00991115    0.00106877
     atom   15 type  2   force =    -0.00292639    0.00577930   -0.00000116
     atom   16 type  2   force =    -0.00288440    0.00543923   -0.00016638
     atom   17 type  2   force =    -0.00259485    0.00384193   -0.00584075
     atom   18 type  2   force =     0.00292639   -0.00577930    0.00000116
     atom   19 type  2   force =     0.00293173   -0.00543848   -0.00015442
     atom   20 type  2   force =     0.00186143   -0.00362255   -0.00638317
     atom   21 type  2   force =    -0.00293173    0.00543848    0.00015442
     atom   22 type  2   force =    -0.00186143    0.00362255    0.00638317
     atom   23 type  2   force =     0.00288440   -0.00543923    0.00016638
     atom   24 type  2   force =     0.00259485   -0.00384193    0.00584075
     atom   25 type  1   force =     0.00086512    0.00191187    0.00000128
     atom   26 type  1   force =    -0.00116497   -0.00010241   -0.00534173
     atom   27 type  1   force =     0.00020935    0.00092631    0.00962511
     atom   28 type  1   force =    -0.00476049   -0.01013078   -0.00132733
     atom   29 type  1   force =    -0.00086512   -0.00191187   -0.00000128
     atom   30 type  1   force =     0.00107900    0.00017649   -0.00534901
     atom   31 type  1   force =    -0.00016409   -0.00104396    0.00962732
     atom   32 type  1   force =     0.00533859    0.00991115   -0.00106877
     atom   33 type  1   force =    -0.00107900   -0.00017649    0.00534901
     atom   34 type  1   force =     0.00016409    0.00104396   -0.00962732
     atom   35 type  1   force =    -0.00533859   -0.00991115    0.00106877
     atom   36 type  1   force =     0.00116497    0.00010241    0.00534173
     atom   37 type  1   force =    -0.00020935   -0.00092631   -0.00962511
     atom   38 type  1   force =     0.00476049    0.01013078    0.00132733
     atom   39 type  2   force =     0.00292639    0.00577930    0.00000116
     atom   40 type  2   force =     0.00293173    0.00543848   -0.00015442
     atom   41 type  2   force =     0.00186143    0.00362255   -0.00638317
     atom   42 type  2   force =    -0.00292639   -0.00577930   -0.00000116
     atom   43 type  2   force =    -0.00288440   -0.00543923   -0.00016638
     atom   44 type  2   force =    -0.00259485   -0.00384193   -0.00584075
     atom   45 type  2   force =     0.00288440    0.00543923    0.00016638
     atom   46 type  2   force =     0.00259485    0.00384193    0.00584075
     atom   47 type  2   force =    -0.00293173   -0.00543848    0.00015442
     atom   48 type  2   force =    -0.00186143   -0.00362255    0.00638317
     The non-local contrib.  to forces
     atom    1 type  1   force =     0.01850583   -0.04094145   -0.00000743
     atom    2 type  1   force =     0.01475858   -0.03166573   -0.02144710
     atom    3 type  1   force =     0.01806078   -0.03948760    0.05797564
     atom    4 type  1   force =     0.02215824   -0.04249262   -0.03160025
     atom    5 type  1   force =    -0.01850583    0.04094145    0.00000743
     atom    6 type  1   force =    -0.01508356    0.03146892   -0.02142061
     atom    7 type  1   force =    -0.01821130    0.03902322    0.05810769
     atom    8 type  1   force =    -0.02087609    0.04342668   -0.03118611
     atom    9 type  1   force =     0.01508356   -0.03146892    0.02142061
     atom   10 type  1   force =     0.01821130   -0.03902322   -0.05810769
     atom   11 type  1   force =     0.02087609   -0.04342668    0.03118611
     atom   12 type  1   force =    -0.01475858    0.03166573    0.02144710
     atom   13 type  1   force =    -0.01806078    0.03948760   -0.05797564
     atom   14 type  1   force =    -0.02215824    0.04249262    0.03160025
     atom   15 type  2   force =     0.03522583   -0.07049166   -0.00000001
     atom   16 type  2   force =     0.03545679   -0.07084878    0.00043081
     atom   17 type  2   force =     0.01742621   -0.03463717    0.06809951
     atom   18 type  2   force =    -0.03522583    0.07049166    0.00000001
     atom   19 type  2   force =    -0.03544827    0.07084213    0.00041685
     atom   20 type  2   force =    -0.01726826    0.03461701    0.06813115
     atom   21 type  2   force =     0.03544827   -0.07084213   -0.00041685
     atom   22 type  2   force =     0.01726826   -0.03461701   -0.06813115
     atom   23 type  2   force =    -0.03545679    0.07084878   -0.00043081
     atom   24 type  2   force =    -0.01742621    0.03463717   -0.06809951
     atom   25 type  1   force =    -0.01850583   -0.04094145    0.00000743
     atom   26 type  1   force =    -0.01508356   -0.03146892   -0.02142061
     atom   27 type  1   force =    -0.01821130   -0.03902322    0.05810769
     atom   28 type  1   force =    -0.02087609   -0.04342668   -0.03118611
     atom   29 type  1   force =     0.01850583    0.04094145   -0.00000743
     atom   30 type  1   force =     0.01475858    0.03166573   -0.02144710
     atom   31 type  1   force =     0.01806078    0.03948760    0.05797564
     atom   32 type  1   force =     0.02215824    0.04249262   -0.03160025
     atom   33 type  1   force =    -0.01475858   -0.03166573    0.02144710
     atom   34 type  1   force =    -0.01806078   -0.03948760   -0.05797564
     atom   35 type  1   force =    -0.02215824   -0.04249262    0.03160025
     atom   36 type  1   force =     0.01508356    0.03146892    0.02142061
     atom   37 type  1   force =     0.01821130    0.03902322   -0.05810769
     atom   38 type  1   force =     0.02087609    0.04342668    0.03118611
     atom   39 type  2   force =    -0.03522583   -0.07049166    0.00000001
     atom   40 type  2   force =    -0.03544827   -0.07084213    0.00041685
     atom   41 type  2   force =    -0.01726826   -0.03461701    0.06813115
     atom   42 type  2   force =     0.03522583    0.07049166   -0.00000001
     atom   43 type  2   force =     0.03545679    0.07084878    0.00043081
     atom   44 type  2   force =     0.01742621    0.03463717    0.06809951
     atom   45 type  2   force =    -0.03545679   -0.07084878   -0.00043081
     atom   46 type  2   force =    -0.01742621   -0.03463717   -0.06809951
     atom   47 type  2   force =     0.03544827    0.07084213   -0.00041685
     atom   48 type  2   force =     0.01726826    0.03461701   -0.06813115
     The ionic contribution  to forces
     atom    1 type  1   force =    -1.62708283    3.75339840    0.00035017
     atom    2 type  1   force =    -0.63428990    1.45114163   -1.90740408
     atom    3 type  1   force =    -1.63989829    3.80217116   -3.34112868
     atom    4 type  1   force =    -0.72189935    1.81636769   -6.54259162
     atom    5 type  1   force =     1.62708283   -3.75339840   -0.00035017
     atom    6 type  1   force =     0.64191534   -1.44884253   -1.91108705
     atom    7 type  1   force =     1.64844013   -3.76432716   -3.34940755
     atom    8 type  1   force =     0.92159607   -1.75601633   -6.62478853
     atom    9 type  1   force =    -0.64191534    1.44884253    1.91108705
     atom   10 type  1   force =    -1.64844013    3.76432716    3.34940755
     atom   11 type  1   force =    -0.92159607    1.75601633    6.62478853
     atom   12 type  1   force =     0.63428990   -1.45114163    1.90740408
     atom   13 type  1   force =     1.63989829   -3.80217116    3.34112868
     atom   14 type  1   force =     0.72189935   -1.81636769    6.54259162
     atom   15 type  2   force =    -0.73228489    1.93308414   -0.00051391
     atom   16 type  2   force =    -0.72735937    1.91799595   -0.88914324
     atom   17 type  2   force =    -0.46157048    1.13971401   -2.26199326
     atom   18 type  2   force =     0.73228489   -1.93308414    0.00051391
     atom   19 type  2   force =     0.72071081   -1.90705945   -0.87341665
     atom   20 type  2   force =     0.51029407   -1.01708600   -2.30272638
     atom   21 type  2   force =    -0.72071081    1.90705945    0.87341665
     atom   22 type  2   force =    -0.51029407    1.01708600    2.30272638
     atom   23 type  2   force =     0.72735937   -1.91799595    0.88914324
     atom   24 type  2   force =     0.46157048   -1.13971401    2.26199326
     atom   25 type  1   force =     1.62708283    3.75339840   -0.00035017
     atom   26 type  1   force =     0.64191534    1.44884253   -1.91108705
     atom   27 type  1   force =     1.64844013    3.76432716   -3.34940755
     atom   28 type  1   force =     0.92159607    1.75601633   -6.62478853
     atom   29 type  1   force =    -1.62708283   -3.75339840    0.00035017
     atom   30 type  1   force =    -0.63428990   -1.45114163   -1.90740408
     atom   31 type  1   force =    -1.63989829   -3.80217116   -3.34112868
     atom   32 type  1   force =    -0.72189935   -1.81636769   -6.54259162
     atom   33 type  1   force =     0.63428990    1.45114163    1.90740408
     atom   34 type  1   force =     1.63989829    3.80217116    3.34112868
     atom   35 type  1   force =     0.72189935    1.81636769    6.54259162
     atom   36 type  1   force =    -0.64191534   -1.44884253    1.91108705
     atom   37 type  1   force =    -1.64844013   -3.76432716    3.34940755
     atom   38 type  1   force =    -0.92159607   -1.75601633    6.62478853
     atom   39 type  2   force =     0.73228489    1.93308414    0.00051391
     atom   40 type  2   force =     0.72071081    1.90705945   -0.87341665
     atom   41 type  2   force =     0.51029407    1.01708600   -2.30272638
     atom   42 type  2   force =    -0.73228489   -1.93308414   -0.00051391
     atom   43 type  2   force =    -0.72735937   -1.91799595   -0.88914324
     atom   44 type  2   force =    -0.46157048   -1.13971401   -2.26199326
     atom   45 type  2   force =     0.72735937    1.91799595    0.88914324
     atom   46 type  2   force =     0.46157048    1.13971401    2.26199326
     atom   47 type  2   force =    -0.72071081   -1.90705945    0.87341665
     atom   48 type  2   force =    -0.51029407   -1.01708600    2.30272638
     The local contribution  to forces
     atom    1 type  1   force =     1.60763521   -3.71071845   -0.00037262
     atom    2 type  1   force =     0.62148808   -1.42143404    1.92229020
     atom    3 type  1   force =     1.62149747   -3.76156567    3.29538757
     atom    4 type  1   force =     0.70585863   -1.78532777    6.57070937
     atom    5 type  1   force =    -1.60763521    3.71071845    0.00037262
     atom    6 type  1   force =    -0.62888356    1.41929511    1.92598708
     atom    7 type  1   force =    -1.62983829    3.72434520    3.30351040
     atom    8 type  1   force =    -0.90620085    1.72429798    6.65226252
     atom    9 type  1   force =     0.62888356   -1.41929511   -1.92598708
     atom   10 type  1   force =     1.62983829   -3.72434520   -3.30351040
     atom   11 type  1   force =     0.90620085   -1.72429798   -6.65226252
     atom   12 type  1   force =    -0.62148808    1.42143404   -1.92229020
     atom   13 type  1   force =    -1.62149747    3.76156567   -3.29538757
     atom   14 type  1   force =    -0.70585863    1.78532777   -6.57070937
     atom   15 type  2   force =     0.69436603   -1.85737847    0.00051027
     atom   16 type  2   force =     0.68922446   -1.84218984    0.88841852
     atom   17 type  2   force =     0.44176028   -1.10143738    2.18820134
     atom   18 type  2   force =    -0.69436603    1.85737847   -0.00051027
     atom   19 type  2   force =    -0.68254402    1.83126457    0.87276093
     atom   20 type  2   force =    -0.49125847    0.97905496    2.22841562
     atom   21 type  2   force =     0.68254402   -1.83126457   -0.87276093
     atom   22 type  2   force =     0.49125847   -0.97905496   -2.22841562
     atom   23 type  2   force =    -0.68922446    1.84218984   -0.88841852
     atom   24 type  2   force =    -0.44176028    1.10143738   -2.18820134
     atom   25 type  1   force =    -1.60763521   -3.71071845    0.00037262
     atom   26 type  1   force =    -0.62888356   -1.41929511    1.92598708
     atom   27 type  1   force =    -1.62983829   -3.72434520    3.30351040
     atom   28 type  1   force =    -0.90620085   -1.72429798    6.65226252
     atom   29 type  1   force =     1.60763521    3.71071845   -0.00037262
     atom   30 type  1   force =     0.62148808    1.42143404    1.92229020
     atom   31 type  1   force =     1.62149747    3.76156567    3.29538757
     atom   32 type  1   force =     0.70585863    1.78532777    6.57070937
     atom   33 type  1   force =    -0.62148808   -1.42143404   -1.92229020
     atom   34 type  1   force =    -1.62149747   -3.76156567   -3.29538757
     atom   35 type  1   force =    -0.70585863   -1.78532777   -6.57070937
     atom   36 type  1   force =     0.62888356    1.41929511   -1.92598708
     atom   37 type  1   force =     1.62983829    3.72434520   -3.30351040
     atom   38 type  1   force =     0.90620085    1.72429798   -6.65226252
     atom   39 type  2   force =    -0.69436603   -1.85737847   -0.00051027
     atom   40 type  2   force =    -0.68254402   -1.83126457    0.87276093
     atom   41 type  2   force =    -0.49125847   -0.97905496    2.22841562
     atom   42 type  2   force =     0.69436603    1.85737847    0.00051027
     atom   43 type  2   force =     0.68922446    1.84218984    0.88841852
     atom   44 type  2   force =     0.44176028    1.10143738    2.18820134
     atom   45 type  2   force =    -0.68922446   -1.84218984   -0.88841852
     atom   46 type  2   force =    -0.44176028   -1.10143738   -2.18820134
     atom   47 type  2   force =     0.68254402    1.83126457   -0.87276093
     atom   48 type  2   force =     0.49125847    0.97905496   -2.22841562
     The core correction contribution to forces
     atom    1 type  1   force =     0.00046657   -0.00092686    0.00000641
     atom    2 type  1   force =    -0.00046877    0.00085949    0.00108743
     atom    3 type  1   force =     0.00054400   -0.00107390   -0.00248324
     atom    4 type  1   force =    -0.00051476    0.00094556    0.00306209
     atom    5 type  1   force =    -0.00046657    0.00092686   -0.00000641
     atom    6 type  1   force =     0.00046813   -0.00085483    0.00108211
     atom    7 type  1   force =    -0.00054319    0.00108409   -0.00249249
     atom    8 type  1   force =     0.00046132   -0.00096553    0.00306644
     atom    9 type  1   force =    -0.00046813    0.00085483   -0.00108211
     atom   10 type  1   force =     0.00054319   -0.00108409    0.00249249
     atom   11 type  1   force =    -0.00046132    0.00096553   -0.00306644
     atom   12 type  1   force =     0.00046877   -0.00085949   -0.00108743
     atom   13 type  1   force =    -0.00054400    0.00107390    0.00248324
     atom   14 type  1   force =     0.00051476   -0.00094556   -0.00306209
     atom   15 type  2   force =     0.00000000    0.00000000    0.00000000
     atom   16 type  2   force =     0.00000000    0.00000000    0.00000000
     atom   17 type  2   force =     0.00000000    0.00000000    0.00000000
     atom   18 type  2   force =     0.00000000    0.00000000    0.00000000
     atom   19 type  2   force =     0.00000000    0.00000000    0.00000000
     atom   20 type  2   force =     0.00000000    0.00000000    0.00000000
     atom   21 type  2   force =     0.00000000    0.00000000    0.00000000
     atom   22 type  2   force =     0.00000000    0.00000000    0.00000000
     atom   23 type  2   force =     0.00000000    0.00000000    0.00000000
     atom   24 type  2   force =     0.00000000    0.00000000    0.00000000
     atom   25 type  1   force =    -0.00046657   -0.00092686   -0.00000641
     atom   26 type  1   force =     0.00046813    0.00085483    0.00108211
     atom   27 type  1   force =    -0.00054319   -0.00108409   -0.00249249
     atom   28 type  1   force =     0.00046132    0.00096553    0.00306644
     atom   29 type  1   force =     0.00046657    0.00092686    0.00000641
     atom   30 type  1   force =    -0.00046877   -0.00085949    0.00108743
     atom   31 type  1   force =     0.00054400    0.00107390   -0.00248324
     atom   32 type  1   force =    -0.00051476   -0.00094556    0.00306209
     atom   33 type  1   force =     0.00046877    0.00085949   -0.00108743
     atom   34 type  1   force =    -0.00054400   -0.00107390    0.00248324
     atom   35 type  1   force =     0.00051476    0.00094556   -0.00306209
     atom   36 type  1   force =    -0.00046813   -0.00085483   -0.00108211
     atom   37 type  1   force =     0.00054319    0.00108409    0.00249249
     atom   38 type  1   force =    -0.00046132   -0.00096553   -0.00306644
     atom   39 type  2   force =     0.00000000    0.00000000    0.00000000
     atom   40 type  2   force =     0.00000000    0.00000000    0.00000000
     atom   41 type  2   force =     0.00000000    0.00000000    0.00000000
     atom   42 type  2   force =     0.00000000    0.00000000    0.00000000
     atom   43 type  2   force =     0.00000000    0.00000000    0.00000000
     atom   44 type  2   force =     0.00000000    0.00000000    0.00000000
     atom   45 type  2   force =     0.00000000    0.00000000    0.00000000
     atom   46 type  2   force =     0.00000000    0.00000000    0.00000000
     atom   47 type  2   force =     0.00000000    0.00000000    0.00000000
     atom   48 type  2   force =     0.00000000    0.00000000    0.00000000
     The Hubbard contrib.    to forces
     atom    1 type  1   force =     0.00000000    0.00000000    0.00000000
     atom    2 type  1   force =     0.00000000    0.00000000    0.00000000
     atom    3 type  1   force =     0.00000000    0.00000000    0.00000000
     atom    4 type  1   force =     0.00000000    0.00000000    0.00000000
     atom    5 type  1   force =     0.00000000    0.00000000    0.00000000
     atom    6 type  1   force =     0.00000000    0.00000000    0.00000000
     atom    7 type  1   force =     0.00000000    0.00000000    0.00000000
     atom    8 type  1   force =     0.00000000    0.00000000    0.00000000
     atom    9 type  1   force =     0.00000000    0.00000000    0.00000000
     atom   10 type  1   force =     0.00000000    0.00000000    0.00000000
     atom   11 type  1   force =     0.00000000    0.00000000    0.00000000
     atom   12 type  1   force =     0.00000000    0.00000000    0.00000000
     atom   13 type  1   force =     0.00000000    0.00000000    0.00000000
     atom   14 type  1   force =     0.00000000    0.00000000    0.00000000
     atom   15 type  2   force =     0.00000000    0.00000000    0.00000000
     atom   16 type  2   force =     0.00000000    0.00000000    0.00000000
     atom   17 type  2   force =     0.00000000    0.00000000    0.00000000
     atom   18 type  2   force =     0.00000000    0.00000000    0.00000000
     atom   19 type  2   force =     0.00000000    0.00000000    0.00000000
     atom   20 type  2   force =     0.00000000    0.00000000    0.00000000
     atom   21 type  2   force =     0.00000000    0.00000000    0.00000000
     atom   22 type  2   force =     0.00000000    0.00000000    0.00000000
     atom   23 type  2   force =     0.00000000    0.00000000    0.00000000
     atom   24 type  2   force =     0.00000000    0.00000000    0.00000000
     atom   25 type  1   force =     0.00000000    0.00000000    0.00000000
     atom   26 type  1   force =     0.00000000    0.00000000    0.00000000
     atom   27 type  1   force =     0.00000000    0.00000000    0.00000000
     atom   28 type  1   force =     0.00000000    0.00000000    0.00000000
     atom   29 type  1   force =     0.00000000    0.00000000    0.00000000
     atom   30 type  1   force =     0.00000000    0.00000000    0.00000000
     atom   31 type  1   force =     0.00000000    0.00000000    0.00000000
     atom   32 type  1   force =     0.00000000    0.00000000    0.00000000
     atom   33 type  1   force =     0.00000000    0.00000000    0.00000000
     atom   34 type  1   force =     0.00000000    0.00000000    0.00000000
     atom   35 type  1   force =     0.00000000    0.00000000    0.00000000
     atom   36 type  1   force =     0.00000000    0.00000000    0.00000000
     atom   37 type  1   force =     0.00000000    0.00000000    0.00000000
     atom   38 type  1   force =     0.00000000    0.00000000    0.00000000
     atom   39 type  2   force =     0.00000000    0.00000000    0.00000000
     atom   40 type  2   force =     0.00000000    0.00000000    0.00000000
     atom   41 type  2   force =     0.00000000    0.00000000    0.00000000
     atom   42 type  2   force =     0.00000000    0.00000000    0.00000000
     atom   43 type  2   force =     0.00000000    0.00000000    0.00000000
     atom   44 type  2   force =     0.00000000    0.00000000    0.00000000
     atom   45 type  2   force =     0.00000000    0.00000000    0.00000000
     atom   46 type  2   force =     0.00000000    0.00000000    0.00000000
     atom   47 type  2   force =     0.00000000    0.00000000    0.00000000
     atom   48 type  2   force =     0.00000000    0.00000000    0.00000000
     The SCF correction term to forces
     atom    1 type  1   force =    -0.00000189    0.00000356    0.00002211
     atom    2 type  1   force =     0.00000849   -0.00002383   -0.00000993
     atom    3 type  1   force =     0.00000424   -0.00001235   -0.00005065
     atom    4 type  1   force =     0.00000851   -0.00002612   -0.00004491
     atom    5 type  1   force =     0.00000189   -0.00000356   -0.00002211
     atom    6 type  1   force =     0.00000598   -0.00001664   -0.00004100
     atom    7 type  1   force =    -0.00000132    0.00000299   -0.00002911
     atom    8 type  1   force =    -0.00000597    0.00000513   -0.00001026
     atom    9 type  1   force =    -0.00000598    0.00001664    0.00004100
     atom   10 type  1   force =     0.00000132   -0.00000299    0.00002911
     atom   11 type  1   force =     0.00000597   -0.00000513    0.00001026
     atom   12 type  1   force =    -0.00000849    0.00002383    0.00000993
     atom   13 type  1   force =    -0.00000424    0.00001235    0.00005065
     atom   14 type  1   force =    -0.00000851    0.00002612    0.00004491
     atom   15 type  2   force =    -0.00000075    0.00000217    0.00000260
     atom   16 type  2   force =    -0.00000394    0.00000940   -0.00000837
     atom   17 type  2   force =     0.00000150   -0.00000477   -0.00000002
     atom   18 type  2   force =     0.00000075   -0.00000217   -0.00000260
     atom   19 type  2   force =    -0.00000134    0.00000645   -0.00000712
     atom   20 type  2   force =    -0.00000112    0.00000177    0.00000095
     atom   21 type  2   force =     0.00000134   -0.00000645    0.00000712
     atom   22 type  2   force =     0.00000112   -0.00000177   -0.00000095
     atom   23 type  2   force =     0.00000394   -0.00000940    0.00000837
     atom   24 type  2   force =    -0.00000150    0.00000477    0.00000002
     atom   25 type  1   force =     0.00000189    0.00000356   -0.00002211
     atom   26 type  1   force =     0.00000598    0.00001664   -0.00004100
     atom   27 type  1   force =    -0.00000132   -0.00000299   -0.00002911
     atom   28 type  1   force =    -0.00000597   -0.00000513   -0.00001026
     atom   29 type  1   force =    -0.00000189   -0.00000356    0.00002211
     atom   30 type  1   force =     0.00000849    0.00002383   -0.00000993
     atom   31 type  1   force =     0.00000424    0.00001235   -0.00005065
     atom   32 type  1   force =     0.00000851    0.00002612   -0.00004491
     atom   33 type  1   force =    -0.00000849   -0.00002383    0.00000993
     atom   34 type  1   force =    -0.00000424   -0.00001235    0.00005065
     atom   35 type  1   force =    -0.00000851   -0.00002612    0.00004491
     atom   36 type  1   force =    -0.00000598   -0.00001664    0.00004100
     atom   37 type  1   force =     0.00000132    0.00000299    0.00002911
     atom   38 type  1   force =     0.00000597    0.00000513    0.00001026
     atom   39 type  2   force =     0.00000075    0.00000217   -0.00000260
     atom   40 type  2   force =    -0.00000134   -0.00000645   -0.00000712
     atom   41 type  2   force =    -0.00000112   -0.00000177    0.00000095
     atom   42 type  2   force =    -0.00000075   -0.00000217    0.00000260
     atom   43 type  2   force =    -0.00000394   -0.00000940   -0.00000837
     atom   44 type  2   force =     0.00000150    0.00000477   -0.00000002
     atom   45 type  2   force =     0.00000394    0.00000940    0.00000837
     atom   46 type  2   force =    -0.00000150   -0.00000477    0.00000002
     atom   47 type  2   force =     0.00000134    0.00000645    0.00000712
     atom   48 type  2   force =     0.00000112    0.00000177   -0.00000095

     DFT-D3 dispersion contribution to forces:
     atom    1 type  1   force =    -0.00038801    0.00109666    0.00000008
     atom    2 type  1   force =    -0.00041748    0.00094600    0.00013448
     atom    3 type  1   force =    -0.00037229    0.00101232   -0.00007331
     atom    4 type  1   force =    -0.00027268    0.00062212   -0.00060346
     atom    5 type  1   force =     0.00038801   -0.00109666   -0.00000008
     atom    6 type  1   force =     0.00041269   -0.00094762    0.00013773
     atom    7 type  1   force =     0.00036332   -0.00105465   -0.00006384
     atom    8 type  1   force =     0.00026503   -0.00061715   -0.00067140
     atom    9 type  1   force =    -0.00041269    0.00094762   -0.00013773
     atom   10 type  1   force =    -0.00036332    0.00105465    0.00006384
     atom   11 type  1   force =    -0.00026503    0.00061715    0.00067140
     atom   12 type  1   force =     0.00041748   -0.00094600   -0.00013448
     atom   13 type  1   force =     0.00037229   -0.00101232    0.00007331
     atom   14 type  1   force =     0.00027268   -0.00062212    0.00060346
     atom   15 type  2   force =    -0.00023261    0.00056312   -0.00000012
     atom   16 type  2   force =    -0.00020234    0.00047249    0.00013590
     atom   17 type  2   force =    -0.00021237    0.00020725   -0.00014831
     atom   18 type  2   force =     0.00023261   -0.00056312    0.00000012
     atom   19 type  2   force =     0.00021456   -0.00049218    0.00009156
     atom   20 type  2   force =     0.00009522   -0.00021030   -0.00020451
     atom   21 type  2   force =    -0.00021456    0.00049218   -0.00009156
     atom   22 type  2   force =    -0.00009522    0.00021030    0.00020451
     atom   23 type  2   force =     0.00020234   -0.00047249   -0.00013590
     atom   24 type  2   force =     0.00021237   -0.00020725    0.00014831
     atom   25 type  1   force =     0.00038801    0.00109666   -0.00000008
     atom   26 type  1   force =     0.00041269    0.00094762    0.00013773
     atom   27 type  1   force =     0.00036332    0.00105465   -0.00006384
     atom   28 type  1   force =     0.00026503    0.00061715   -0.00067140
     atom   29 type  1   force =    -0.00038801   -0.00109666    0.00000008
     atom   30 type  1   force =    -0.00041748   -0.00094600    0.00013448
     atom   31 type  1   force =    -0.00037229   -0.00101232   -0.00007331
     atom   32 type  1   force =    -0.00027268   -0.00062212   -0.00060346
     atom   33 type  1   force =     0.00041748    0.00094600   -0.00013448
     atom   34 type  1   force =     0.00037229    0.00101232    0.00007331
     atom   35 type  1   force =     0.00027268    0.00062212    0.00060346
     atom   36 type  1   force =    -0.00041269   -0.00094762   -0.00013773
     atom   37 type  1   force =    -0.00036332   -0.00105465    0.00006384
     atom   38 type  1   force =    -0.00026503   -0.00061715    0.00067140
     atom   39 type  2   force =     0.00023261    0.00056312    0.00000012
     atom   40 type  2   force =     0.00021456    0.00049218    0.00009156
     atom   41 type  2   force =     0.00009522    0.00021030   -0.00020451
     atom   42 type  2   force =    -0.00023261   -0.00056312   -0.00000012
     atom   43 type  2   force =    -0.00020234   -0.00047249    0.00013590
     atom   44 type  2   force =    -0.00021237   -0.00020725   -0.00014831
     atom   45 type  2   force =     0.00020234    0.00047249   -0.00013590
     atom   46 type  2   force =     0.00021237    0.00020725    0.00014831
     atom   47 type  2   force =    -0.00021456   -0.00049218   -0.00009156
     atom   48 type  2   force =    -0.00009522   -0.00021030    0.00020451

     Total force =     0.054311     Total SCF correction =     0.000201

     DFT-D3 dispersion Force =     0.005942


     Computing stress (Cartesian axis) and pressure

          total   stress  (Ry/bohr**3)                   (kbar)     P=   10.77
   0.00004944   0.00000000   0.00000101          7.27      0.00      0.15
   0.00000000   0.00009974   0.00000000          0.00     14.67      0.00
   0.00000101   0.00000000   0.00007040          0.15      0.00     10.36

     kinetic stress (kbar)   7591.29      0.00      0.44
                                0.00   7082.17      0.00
                                0.44      0.00   6887.60

     local   stress (kbar)   -654.91     -0.00   -261.85
                               -0.00 -10440.38     -0.00
                             -261.85     -0.00 -11503.71

     nonloc. stress (kbar)   1113.37      0.00     -0.01
                                0.00   1161.84      0.00
                               -0.01      0.00   1195.86

     hartree stress (kbar)   1453.24      0.00    116.64
                                0.00   4209.78     -0.00
                              116.64     -0.00   3518.43

     exc-cor stress (kbar)   -377.44      0.00      0.04
                                0.00   -338.42      0.00
                                0.04      0.00   -321.43

     corecor stress (kbar)  -1479.99      0.00     -0.01
                                0.00  -1496.53     -0.00
                               -0.01     -0.00  -1504.52

     ewald   stress (kbar)  -7626.60     -0.00    144.93
                               -0.00   -154.61     -0.00
                              144.93     -0.00   1745.01

     hubbard stress (kbar)      0.00      0.00      0.00
                                0.00      0.00      0.00
                                0.00      0.00      0.00

     london  stress (kbar)      0.00      0.00      0.00
                                0.00      0.00      0.00
                                0.00      0.00      0.00

     DFT-D3  stress (kbar)    -11.69      0.00     -0.04
                                0.00     -9.18     -0.00
                               -0.04     -0.00     -6.88

     XDM     stress (kbar)      0.00      0.00      0.00
                                0.00      0.00      0.00
                                0.00      0.00      0.00

     dft-nl  stress (kbar)      0.00      0.00      0.00
                                0.00      0.00      0.00
                                0.00      0.00      0.00

     TS-vdW  stress (kbar)      0.00      0.00      0.00
                                0.00      0.00      0.00
                                0.00      0.00      0.00



     BFGS Geometry Optimization

     number of scf cycles    =   1
     number of bfgs steps    =   0

     enthalpy new            =    -371.5306868244 Ry

     new trust radius        =       0.0277452084 bohr
     new conv_thr            =       0.0000000100 Ry

     new unit-cell volume =   3112.53973 a.u.^3 (   461.23080 Ang^3 )
     density =      1.28336 g/cm^3

CELL_PARAMETERS (angstrom)
   7.350073516   0.000000000   0.000185840
   0.000000000   5.909586898   0.000000000
   2.002740217   0.000000000  10.618705131

ATOMIC_POSITIONS (angstrom)
C       -0.626773167   1.258785049  -0.000016526
C       -0.321826440   0.647286852  -1.226306028
C       -0.627886288   1.261180304  -2.475042358
C       -0.315525919   0.633878592  -3.660846784
C        0.626773167  -1.258785049   0.000016526
C        0.321718911  -0.647326149  -1.226285900
C        0.627785179  -1.261117894  -2.475011786
C        0.315647187  -0.633762076  -3.660967893
C       -0.321718911   0.647326149   1.226285900
C       -0.627785179   1.261117894   2.475011786
C       -0.315647187   0.633762076   3.660967893
C        0.321826440  -0.647286852   1.226306028
C        0.627886288  -1.261180304   2.475042358
C        0.315525919  -0.633878592   3.660846784
H       -1.112984533   2.235057377  -0.000028758
H       -1.114079263   2.236994280  -2.479111384
H       -0.557319813   1.118257714  -4.609840269
H        1.112984533  -2.235057377   0.000028758
H        1.113979043  -2.236993885  -2.479048707
H        0.556698228  -1.118141334  -4.610099643
H       -1.113979043   2.236993885   2.479048707
H       -0.556698228   1.118141334   4.610099643
H        1.114079263  -2.236994280   2.479111384
H        0.557319813  -1.118257714   4.609840269
C        4.301809925   4.213578498   0.000109445
C        3.996755669   3.602119598  -1.226192980
C        4.302821937   4.215911343  -2.474918866
C        3.990683945   3.588555526  -3.660874973
C        3.048263591   1.696008400   0.000076394
C        3.353210319   2.307506597  -1.226213108
C        3.047150471   1.693613145  -2.474949438
C        3.359510840   2.320914857  -3.660753864
C        3.996863198   3.602080301   1.226398948
C        4.302923046   4.215973753   2.475135278
C        3.990562677   3.588672041   3.660939704
C        3.353317848   2.307467300   1.226378820
C        3.047251579   1.693675555   2.475104706
C        3.359389571   2.321031373   3.661060813
H        4.788021292   5.189850826   0.000121678
H        4.789015801   5.191787334  -2.478955787
H        4.231734987   4.072934783  -4.610006724
H        2.562052225   0.719736072   0.000064162
H        2.560957495   0.717799169  -2.479018464
H        3.117716945   1.836535735  -4.609747350
H        4.789116021   5.191787729   2.479204304
H        4.232356572   4.073051163   4.609933189
H        2.561057715   0.717799564   2.479141627
H        3.118338530   1.836652115   4.610192563



     Writing output data file wm.save/
     NEW-OLD atomic charge density approx. for the potential

     Check: negative core charge=   -0.000002
     extrapolated charge  132.72187, renormalised to  132.00000

     total cpu time spent up to now is       40.2 secs

     Self-consistent Calculation

     iteration #  1     ecut=    64.00 Ry     beta= 0.70
     Davidson diagonalization with overlap
     ethr =  1.00E-06,  avg # of iterations =  5.0

     total cpu time spent up to now is       46.9 secs

     total energy              =    -371.50486075 Ry
     Harris-Foulkes estimate   =    -370.23565827 Ry
     estimated scf accuracy    <       0.02312873 Ry

     iteration #  2     ecut=    64.00 Ry     beta= 0.70
     Davidson diagonalization with overlap
     ethr =  1.75E-05,  avg # of iterations =  4.0

     total cpu time spent up to now is       48.5 secs

     total energy              =    -371.51388130 Ry
     Harris-Foulkes estimate   =    -371.57051579 Ry
     estimated scf accuracy    <       0.18843212 Ry

     iteration #  3     ecut=    64.00 Ry     beta= 0.70
     Davidson diagonalization with overlap
     ethr =  1.75E-05,  avg # of iterations =  4.0

     total cpu time spent up to now is       49.9 secs

     total energy              =    -371.53238013 Ry
     Harris-Foulkes estimate   =    -371.53479725 Ry
     estimated scf accuracy    <       0.00974710 Ry

     iteration #  4     ecut=    64.00 Ry     beta= 0.70
     Davidson diagonalization with overlap
     ethr =  7.38E-06,  avg # of iterations =  2.0

     total cpu time spent up to now is       50.8 secs

     total energy              =    -371.53140143 Ry
     Harris-Foulkes estimate   =    -371.53289764 Ry
     estimated scf accuracy    <       0.00440340 Ry

     iteration #  5     ecut=    64.00 Ry     beta= 0.70
     Davidson diagonalization with overlap
     ethr =  3.34E-06,  avg # of iterations =  2.0

     total cpu time spent up to now is       51.9 secs

     total energy              =    -371.53167093 Ry
     Harris-Foulkes estimate   =    -371.53180651 Ry
     estimated scf accuracy    <       0.00081582 Ry

     iteration #  6     ecut=    64.00 Ry     beta= 0.70
     Davidson diagonalization with overlap
     ethr =  6.18E-07,  avg # of iterations =  3.0

     total cpu time spent up to now is       52.9 secs

     total energy              =    -371.53166521 Ry
     Harris-Foulkes estimate   =    -371.53172560 Ry
     estimated scf accuracy    <       0.00017784 Ry

     iteration #  7     ecut=    64.00 Ry     beta= 0.70
     Davidson diagonalization with overlap
     ethr =  1.35E-07,  avg # of iterations =  3.0

     total cpu time spent up to now is       54.0 secs

     total energy              =    -371.53168952 Ry
     Harris-Foulkes estimate   =    -371.53169097 Ry
     estimated scf accuracy    <       0.00000289 Ry

     iteration #  8     ecut=    64.00 Ry     beta= 0.70
     Davidson diagonalization with overlap
     ethr =  2.19E-09,  avg # of iterations =  3.0

     total cpu time spent up to now is       55.3 secs

     total energy              =    -371.53169076 Ry
     Harris-Foulkes estimate   =    -371.53169095 Ry
     estimated scf accuracy    <       0.00000074 Ry

     iteration #  9     ecut=    64.00 Ry     beta= 0.70
     Davidson diagonalization with overlap
     ethr =  5.63E-10,  avg # of iterations =  2.0

     total cpu time spent up to now is       56.2 secs

     total energy              =    -371.53169077 Ry
     Harris-Foulkes estimate   =    -371.53169083 Ry
     estimated scf accuracy    <       0.00000025 Ry

     iteration # 10     ecut=    64.00 Ry     beta= 0.70
     Davidson diagonalization with overlap
     ethr =  1.91E-10,  avg # of iterations =  3.0

     total cpu time spent up to now is       57.3 secs

     total energy              =    -371.53169079 Ry
     Harris-Foulkes estimate   =    -371.53169080 Ry
     estimated scf accuracy    <       0.00000003 Ry

     iteration # 11     ecut=    64.00 Ry     beta= 0.70
     Davidson diagonalization with overlap
     ethr =  2.44E-11,  avg # of iterations =  3.0

     total cpu time spent up to now is       58.4 secs

     End of self-consistent calculation

          k = 0.1665 0.2070 0.1414 ( 26756 PWs)   bands (ev):

   -15.5647 -15.4327 -14.7681 -14.6524 -13.5002 -13.3804 -12.9126 -12.9042
   -12.0888 -12.0763 -11.8703 -11.8272 -10.8168 -10.8138  -9.5752  -9.4474
    -8.6988  -8.6941  -8.3960  -8.3122  -8.0905  -8.0837  -6.7733  -6.7016
    -6.4754  -6.3976  -5.9775  -5.9039  -4.9533  -4.8113  -4.7912  -4.6993
    -4.6496  -4.5072  -4.4411  -4.4277  -3.8997  -3.7718  -3.5424  -3.4922
    -3.4442  -3.4036  -3.3831  -3.0921  -2.9740  -2.9457  -2.7377  -2.6889
    -2.5305  -2.2657  -1.9212  -1.7018  -1.6153  -1.5837  -1.4758  -1.2906
    -1.2585  -1.0130  -0.9169  -0.7488  -0.2922   0.0851   0.2279   0.3526
     1.1692   1.7190

     occupation numbers 
     1.0000   1.0000   1.0000   1.0000   1.0000   1.0000   1.0000   1.0000
     1.0000   1.0000   1.0000   1.0000   1.0000   1.0000   1.0000   1.0000
     1.0000   1.0000   1.0000   1.0000   1.0000   1.0000   1.0000   1.0000
     1.0000   1.0000   1.0000   1.0000   1.0000   1.0000   1.0000   1.0000
     1.0000   1.0000   1.0000   1.0000   1.0000   1.0000   1.0000   1.0000
     1.0000   1.0000   1.0000   1.0000   1.0000   1.0000   1.0000   1.0000
     1.0000   1.0000   1.0000   1.0000   1.0000   1.0000   1.0000   1.0000
     1.0000   1.0000   1.0000   1.0000   1.0000   1.0000   1.0000   1.0000
     1.0000   1.0000

          k = 0.1665 0.2070-0.2042 ( 26762 PWs)   bands (ev):

   -15.5635 -15.4339 -14.7732 -14.6471 -13.4879 -13.3929 -12.9134 -12.9034
   -12.0853 -12.0798 -11.8906 -11.8073 -10.8245 -10.8061  -9.5426  -9.4788
    -8.7193  -8.6732  -8.3958  -8.3126  -8.0953  -8.0819  -6.7601  -6.7145
    -6.4724  -6.3954  -6.0030  -5.8849  -4.9126  -4.8596  -4.7885  -4.7034
    -4.6427  -4.4701  -4.4624  -4.4345  -3.8818  -3.7923  -3.5346  -3.4884
    -3.4442  -3.4393  -3.3474  -3.0944  -2.9989  -2.9236  -2.7588  -2.6769
    -2.5555  -2.2576  -1.8812  -1.7153  -1.6264  -1.5531  -1.4998  -1.2975
    -1.2400  -1.0263  -0.9204  -0.7485  -0.2940   0.0796   0.2312   0.3582
     1.1777   1.7122

     occupation numbers 
     1.0000   1.0000   1.0000   1.0000   1.0000   1.0000   1.0000   1.0000
     1.0000   1.0000   1.0000   1.0000   1.0000   1.0000   1.0000   1.0000
     1.0000   1.0000   1.0000   1.0000   1.0000   1.0000   1.0000   1.0000
     1.0000   1.0000   1.0000   1.0000   1.0000   1.0000   1.0000   1.0000
     1.0000   1.0000   1.0000   1.0000   1.0000   1.0000   1.0000   1.0000
     1.0000   1.0000   1.0000   1.0000   1.0000   1.0000   1.0000   1.0000
     1.0000   1.0000   1.0000   1.0000   1.0000   1.0000   1.0000   1.0000
     1.0000   1.0000   1.0000   1.0000   1.0000   1.0000   1.0000   1.0000
     1.0000   1.0000

          k = 0.1665-0.6211 0.1414 ( 26782 PWs)   bands (ev):

   -15.4794 -15.4794 -14.6925 -14.6925 -13.4251 -13.4251 -12.9766 -12.9766
   -12.1469 -12.1469 -11.8426 -11.8426 -10.8748 -10.8748  -9.4850  -9.4850
    -8.7180  -8.7180  -8.1931  -8.1931  -7.9842  -7.9842  -6.7847  -6.7847
    -6.3564  -6.3564  -5.8112  -5.8112  -4.9303  -4.9303  -4.7620  -4.7620
    -4.6625  -4.6625  -4.4446  -4.4446  -3.9305  -3.9305  -3.6177  -3.6177
    -3.5564  -3.5564  -3.3923  -3.3923  -2.8891  -2.8891  -2.7166  -2.7166
    -2.6096  -2.6096  -1.6439  -1.6439  -1.5387  -1.5387  -1.2091  -1.2091
    -1.1594  -1.1594  -0.7493  -0.7493   0.1659   0.1659   0.2022   0.2022
     1.6464   1.6464

     occupation numbers 
     1.0000   1.0000   1.0000   1.0000   1.0000   1.0000   1.0000   1.0000
     1.0000   1.0000   1.0000   1.0000   1.0000   1.0000   1.0000   1.0000
     1.0000   1.0000   1.0000   1.0000   1.0000   1.0000   1.0000   1.0000
     1.0000   1.0000   1.0000   1.0000   1.0000   1.0000   1.0000   1.0000
     1.0000   1.0000   1.0000   1.0000   1.0000   1.0000   1.0000   1.0000
     1.0000   1.0000   1.0000   1.0000   1.0000   1.0000   1.0000   1.0000
     1.0000   1.0000   1.0000   1.0000   1.0000   1.0000   1.0000   1.0000
     1.0000   1.0000   1.0000   1.0000   1.0000   1.0000   1.0000   1.0000
     1.0000   1.0000

          k = 0.1665-0.6211-0.2042 ( 26776 PWs)   bands (ev):

   -15.4794 -15.4794 -14.6928 -14.6928 -13.4246 -13.4246 -12.9767 -12.9767
   -12.1463 -12.1463 -11.8433 -11.8433 -10.8762 -10.8762  -9.4832  -9.4832
    -8.7167  -8.7167  -8.1931  -8.1931  -7.9844  -7.9844  -6.7844  -6.7844
    -6.3630  -6.3630  -5.8121  -5.8121  -4.9274  -4.9274  -4.7623  -4.7623
    -4.6573  -4.6573  -4.4463  -4.4463  -3.9178  -3.9178  -3.6239  -3.6239
    -3.5612  -3.5612  -3.3890  -3.3890  -2.8961  -2.8961  -2.7119  -2.7119
    -2.6150  -2.6150  -1.6512  -1.6512  -1.5351  -1.5351  -1.2112  -1.2112
    -1.1555  -1.1555  -0.7437  -0.7437   0.1671   0.1671   0.2010   0.2010
     1.6483   1.6483

     occupation numbers 
     1.0000   1.0000   1.0000   1.0000   1.0000   1.0000   1.0000   1.0000
     1.0000   1.0000   1.0000   1.0000   1.0000   1.0000   1.0000   1.0000
     1.0000   1.0000   1.0000   1.0000   1.0000   1.0000   1.0000   1.0000
     1.0000   1.0000   1.0000   1.0000   1.0000   1.0000   1.0000   1.0000
     1.0000   1.0000   1.0000   1.0000   1.0000   1.0000   1.0000   1.0000
     1.0000   1.0000   1.0000   1.0000   1.0000   1.0000   1.0000   1.0000
     1.0000   1.0000   1.0000   1.0000   1.0000   1.0000   1.0000   1.0000
     1.0000   1.0000   1.0000   1.0000   1.0000   1.0000   1.0000   1.0000
     1.0000   1.0000

          k =-0.4994 0.2070 0.2670 ( 26745 PWs)   bands (ev):

   -15.5012 -15.4987 -14.7164 -14.7060 -13.4534 -13.4287 -12.9079 -12.9062
   -12.0854 -12.0775 -11.8690 -11.8288 -10.8237 -10.8056  -9.5434  -9.4793
    -8.7215  -8.6713  -8.3634  -8.3628  -8.0983  -8.0848  -6.7920  -6.6742
    -6.5174  -6.3648  -5.9744  -5.9298  -4.9668  -4.8358  -4.7625  -4.6725
    -4.5049  -4.4451  -4.4190  -4.4175  -3.8026  -3.7440  -3.4832  -3.4739
    -3.4589  -3.4448  -3.4299  -3.3298  -3.0125  -2.9229  -2.7551  -2.6536
    -2.6190  -2.4541  -1.8023  -1.6875  -1.6062  -1.4543  -1.3375  -1.3084
    -1.1237  -1.1158  -0.9774  -0.9658  -0.0659  -0.0577   0.2149   0.2251
     1.4155   1.4321

     occupation numbers 
     1.0000   1.0000   1.0000   1.0000   1.0000   1.0000   1.0000   1.0000
     1.0000   1.0000   1.0000   1.0000   1.0000   1.0000   1.0000   1.0000
     1.0000   1.0000   1.0000   1.0000   1.0000   1.0000   1.0000   1.0000
     1.0000   1.0000   1.0000   1.0000   1.0000   1.0000   1.0000   1.0000
     1.0000   1.0000   1.0000   1.0000   1.0000   1.0000   1.0000   1.0000
     1.0000   1.0000   1.0000   1.0000   1.0000   1.0000   1.0000   1.0000
[...]
     atom   20 type  2   force =     0.00000000    0.00000000    0.00000000
     atom   21 type  2   force =     0.00000000    0.00000000    0.00000000
     atom   22 type  2   force =     0.00000000    0.00000000    0.00000000
     atom   23 type  2   force =     0.00000000    0.00000000    0.00000000
     atom   24 type  2   force =     0.00000000    0.00000000    0.00000000
     atom   25 type  1   force =    -0.00045813   -0.00095328   -0.00000092
     atom   26 type  1   force =     0.00052760    0.00093761    0.00089009
     atom   27 type  1   force =    -0.00055064   -0.00109338   -0.00211424
     atom   28 type  1   force =     0.00029929    0.00066924    0.00294030
     atom   29 type  1   force =     0.00045813    0.00095328    0.00000092
     atom   30 type  1   force =    -0.00054922   -0.00094892    0.00088597
     atom   31 type  1   force =     0.00051389    0.00111502   -0.00212875
     atom   32 type  1   force =    -0.00041784   -0.00063783    0.00295933
     atom   33 type  1   force =     0.00054922    0.00094892   -0.00088597
     atom   34 type  1   force =    -0.00051389   -0.00111502    0.00212875
     atom   35 type  1   force =     0.00041784    0.00063783   -0.00295933
     atom   36 type  1   force =    -0.00052760   -0.00093761   -0.00089009
     atom   37 type  1   force =     0.00055064    0.00109338    0.00211424
     atom   38 type  1   force =    -0.00029929   -0.00066924   -0.00294030
     atom   39 type  2   force =     0.00000000    0.00000000    0.00000000
     atom   40 type  2   force =     0.00000000    0.00000000    0.00000000
     atom   41 type  2   force =     0.00000000    0.00000000    0.00000000
     atom   42 type  2   force =     0.00000000    0.00000000    0.00000000
     atom   43 type  2   force =     0.00000000    0.00000000    0.00000000
     atom   44 type  2   force =     0.00000000    0.00000000    0.00000000
     atom   45 type  2   force =     0.00000000    0.00000000    0.00000000
     atom   46 type  2   force =     0.00000000    0.00000000    0.00000000
     atom   47 type  2   force =     0.00000000    0.00000000    0.00000000
     atom   48 type  2   force =     0.00000000    0.00000000    0.00000000
     The Hubbard contrib.    to forces
     atom    1 type  1   force =     0.00000000    0.00000000    0.00000000
     atom    2 type  1   force =     0.00000000    0.00000000    0.00000000
     atom    3 type  1   force =     0.00000000    0.00000000    0.00000000
     atom    4 type  1   force =     0.00000000    0.00000000    0.00000000
     atom    5 type  1   force =     0.00000000    0.00000000    0.00000000
     atom    6 type  1   force =     0.00000000    0.00000000    0.00000000
     atom    7 type  1   force =     0.00000000    0.00000000    0.00000000
     atom    8 type  1   force =     0.00000000    0.00000000    0.00000000
     atom    9 type  1   force =     0.00000000    0.00000000    0.00000000
     atom   10 type  1   force =     0.00000000    0.00000000    0.00000000
     atom   11 type  1   force =     0.00000000    0.00000000    0.00000000
     atom   12 type  1   force =     0.00000000    0.00000000    0.00000000
     atom   13 type  1   force =     0.00000000    0.00000000    0.00000000
     atom   14 type  1   force =     0.00000000    0.00000000    0.00000000
     atom   15 type  2   force =     0.00000000    0.00000000    0.00000000
     atom   16 type  2   force =     0.00000000    0.00000000    0.00000000
     atom   17 type  2   force =     0.00000000    0.00000000    0.00000000
     atom   18 type  2   force =     0.00000000    0.00000000    0.00000000
     atom   19 type  2   force =     0.00000000    0.00000000    0.00000000
     atom   20 type  2   force =     0.00000000    0.00000000    0.00000000
     atom   21 type  2   force =     0.00000000    0.00000000    0.00000000
     atom   22 type  2   force =     0.00000000    0.00000000    0.00000000
     atom   23 type  2   force =     0.00000000    0.00000000    0.00000000
     atom   24 type  2   force =     0.00000000    0.00000000    0.00000000
     atom   25 type  1   force =     0.00000000    0.00000000    0.00000000
     atom   26 type  1   force =     0.00000000    0.00000000    0.00000000
     atom   27 type  1   force =     0.00000000    0.00000000    0.00000000
     atom   28 type  1   force =     0.00000000    0.00000000    0.00000000
     atom   29 type  1   force =     0.00000000    0.00000000    0.00000000
     atom   30 type  1   force =     0.00000000    0.00000000    0.00000000
     atom   31 type  1   force =     0.00000000    0.00000000    0.00000000
     atom   32 type  1   force =     0.00000000    0.00000000    0.00000000
     atom   33 type  1   force =     0.00000000    0.00000000    0.00000000
     atom   34 type  1   force =     0.00000000    0.00000000    0.00000000
     atom   35 type  1   force =     0.00000000    0.00000000    0.00000000
     atom   36 type  1   force =     0.00000000    0.00000000    0.00000000
     atom   37 type  1   force =     0.00000000    0.00000000    0.00000000
     atom   38 type  1   force =     0.00000000    0.00000000    0.00000000
     atom   39 type  2   force =     0.00000000    0.00000000    0.00000000
     atom   40 type  2   force =     0.00000000    0.00000000    0.00000000
     atom   41 type  2   force =     0.00000000    0.00000000    0.00000000
     atom   42 type  2   force =     0.00000000    0.00000000    0.00000000
     atom   43 type  2   force =     0.00000000    0.00000000    0.00000000
     atom   44 type  2   force =     0.00000000    0.00000000    0.00000000
     atom   45 type  2   force =     0.00000000    0.00000000    0.00000000
     atom   46 type  2   force =     0.00000000    0.00000000    0.00000000
     atom   47 type  2   force =     0.00000000    0.00000000    0.00000000
     atom   48 type  2   force =     0.00000000    0.00000000    0.00000000
     The SCF correction term to forces
     atom    1 type  1   force =    -0.00000065    0.00000164   -0.00000230
     atom    2 type  1   force =    -0.00000144    0.00000342   -0.00000224
     atom    3 type  1   force =    -0.00000034    0.00000107    0.00000028
     atom    4 type  1   force =    -0.00000068    0.00000192    0.00000245
     atom    5 type  1   force =     0.00000065   -0.00000164    0.00000230
     atom    6 type  1   force =    -0.00000011    0.00000051    0.00000060
     atom    7 type  1   force =     0.00000026   -0.00000078   -0.00000114
     atom    8 type  1   force =    -0.00000016    0.00000071   -0.00000060
     atom    9 type  1   force =     0.00000011   -0.00000051   -0.00000060
     atom   10 type  1   force =    -0.00000026    0.00000078    0.00000114
     atom   11 type  1   force =     0.00000016   -0.00000071    0.00000060
     atom   12 type  1   force =     0.00000144   -0.00000342    0.00000224
     atom   13 type  1   force =     0.00000034   -0.00000107   -0.00000028
     atom   14 type  1   force =     0.00000068   -0.00000192   -0.00000245
     atom   15 type  2   force =     0.00000008    0.00000008   -0.00000026
     atom   16 type  2   force =     0.00000041   -0.00000090    0.00000011
     atom   17 type  2   force =    -0.00000004    0.00000013    0.00000030
     atom   18 type  2   force =    -0.00000008   -0.00000008    0.00000026
     atom   19 type  2   force =     0.00000011   -0.00000056   -0.00000001
     atom   20 type  2   force =     0.00000001   -0.00000000   -0.00000007
     atom   21 type  2   force =    -0.00000011    0.00000056    0.00000001
     atom   22 type  2   force =    -0.00000001    0.00000000    0.00000007
     atom   23 type  2   force =    -0.00000041    0.00000090   -0.00000011
     atom   24 type  2   force =     0.00000004   -0.00000013   -0.00000030
     atom   25 type  1   force =     0.00000065    0.00000164    0.00000230
     atom   26 type  1   force =    -0.00000011   -0.00000051    0.00000060
     atom   27 type  1   force =     0.00000026    0.00000078   -0.00000114
     atom   28 type  1   force =    -0.00000016   -0.00000071   -0.00000060
     atom   29 type  1   force =    -0.00000065   -0.00000164   -0.00000230
     atom   30 type  1   force =    -0.00000144   -0.00000342   -0.00000224
     atom   31 type  1   force =    -0.00000034   -0.00000107    0.00000028
     atom   32 type  1   force =    -0.00000068   -0.00000192    0.00000245
     atom   33 type  1   force =     0.00000144    0.00000342    0.00000224
     atom   34 type  1   force =     0.00000034    0.00000107   -0.00000028
     atom   35 type  1   force =     0.00000068    0.00000192   -0.00000245
     atom   36 type  1   force =     0.00000011    0.00000051   -0.00000060
     atom   37 type  1   force =    -0.00000026   -0.00000078    0.00000114
     atom   38 type  1   force =     0.00000016    0.00000071    0.00000060
     atom   39 type  2   force =    -0.00000008    0.00000008    0.00000026
     atom   40 type  2   force =     0.00000011    0.00000056   -0.00000001
     atom   41 type  2   force =     0.00000001    0.00000000   -0.00000007
     atom   42 type  2   force =     0.00000008   -0.00000008   -0.00000026
     atom   43 type  2   force =     0.00000041    0.00000090    0.00000011
     atom   44 type  2   force =    -0.00000004   -0.00000013    0.00000030
     atom   45 type  2   force =    -0.00000041   -0.00000090   -0.00000011
     atom   46 type  2   force =     0.00000004    0.00000013   -0.00000030
     atom   47 type  2   force =    -0.00000011   -0.00000056    0.00000001
     atom   48 type  2   force =    -0.00000001   -0.00000000    0.00000007

     DFT-D3 dispersion contribution to forces:
     atom    1 type  1   force =    -0.00036928    0.00102313   -0.00000045
     atom    2 type  1   force =    -0.00042545    0.00089481    0.00013901
     atom    3 type  1   force =    -0.00036418    0.00096009   -0.00006294
     atom    4 type  1   force =    -0.00028370    0.00059735   -0.00058158
     atom    5 type  1   force =     0.00036928   -0.00102313    0.00000045
     atom    6 type  1   force =     0.00041909   -0.00089658    0.00014105
     atom    7 type  1   force =     0.00035697   -0.00100489   -0.00005136
     atom    8 type  1   force =     0.00027608   -0.00059135   -0.00065048
     atom    9 type  1   force =    -0.00041909    0.00089658   -0.00014105
     atom   10 type  1   force =    -0.00035697    0.00100489    0.00005136
     atom   11 type  1   force =    -0.00027608    0.00059135    0.00065048
     atom   12 type  1   force =     0.00042545   -0.00089481   -0.00013901
     atom   13 type  1   force =     0.00036418   -0.00096009    0.00006294
     atom   14 type  1   force =     0.00028370   -0.00059735    0.00058158
     atom   15 type  2   force =    -0.00027999    0.00060394    0.00000182
     atom   16 type  2   force =    -0.00024731    0.00051208    0.00012604
     atom   17 type  2   force =    -0.00022493    0.00019671   -0.00017523
     atom   18 type  2   force =     0.00027999   -0.00060394   -0.00000182
     atom   19 type  2   force =     0.00026079   -0.00053348    0.00007691
     atom   20 type  2   force =     0.00009372   -0.00020452   -0.00022973
     atom   21 type  2   force =    -0.00026079    0.00053348   -0.00007691
     atom   22 type  2   force =    -0.00009372    0.00020452    0.00022973
     atom   23 type  2   force =     0.00024731   -0.00051208   -0.00012604
     atom   24 type  2   force =     0.00022493   -0.00019671    0.00017523
     atom   25 type  1   force =     0.00036928    0.00102313    0.00000045
     atom   26 type  1   force =     0.00041909    0.00089658    0.00014105
     atom   27 type  1   force =     0.00035697    0.00100489   -0.00005136
     atom   28 type  1   force =     0.00027608    0.00059135   -0.00065048
     atom   29 type  1   force =    -0.00036928   -0.00102313   -0.00000045
     atom   30 type  1   force =    -0.00042545   -0.00089481    0.00013901
     atom   31 type  1   force =    -0.00036418   -0.00096009   -0.00006294
     atom   32 type  1   force =    -0.00028370   -0.00059735   -0.00058158
     atom   33 type  1   force =     0.00042545    0.00089481   -0.00013901
     atom   34 type  1   force =     0.00036418    0.00096009    0.00006294
     atom   35 type  1   force =     0.00028370    0.00059735    0.00058158
     atom   36 type  1   force =    -0.00041909   -0.00089658   -0.00014105
     atom   37 type  1   force =    -0.00035697   -0.00100489    0.00005136
     atom   38 type  1   force =    -0.00027608   -0.00059135    0.00065048
     atom   39 type  2   force =     0.00027999    0.00060394   -0.00000182
     atom   40 type  2   force =     0.00026079    0.00053348    0.00007691
     atom   41 type  2   force =     0.00009372    0.00020452   -0.00022973
     atom   42 type  2   force =    -0.00027999   -0.00060394    0.00000182
     atom   43 type  2   force =    -0.00024731   -0.00051208    0.00012604
     atom   44 type  2   force =    -0.00022493   -0.00019671   -0.00017523
     atom   45 type  2   force =     0.00024731    0.00051208   -0.00012604
     atom   46 type  2   force =     0.00022493    0.00019671    0.00017523
     atom   47 type  2   force =    -0.00026079   -0.00053348   -0.00007691
     atom   48 type  2   force =    -0.00009372   -0.00020452    0.00022973

     Total force =     0.013032     Total SCF correction =     0.000013

     DFT-D3 dispersion Force =     0.005786


     Computing stress (Cartesian axis) and pressure

          total   stress  (Ry/bohr**3)                   (kbar)     P=    0.21
   0.00001067   0.00000000   0.00000010          1.57      0.00      0.02
   0.00000000  -0.00000088   0.00000000          0.00     -0.13      0.00
   0.00000010   0.00000000  -0.00000541          0.02      0.00     -0.80

     kinetic stress (kbar)   7431.07      0.00     -0.72
                                0.00   6933.00      0.00
                               -0.72      0.00   6754.28

     local   stress (kbar)   -538.00      0.00   -268.53
                                0.00 -10222.99      0.00
                             -268.53      0.00 -11634.63

     nonloc. stress (kbar)   1093.19      0.00      0.05
                                0.00   1140.58      0.00
                                0.05      0.00   1172.15

     hartree stress (kbar)   1361.13     -0.00    118.45
                               -0.00   4121.61     -0.00
                              118.45     -0.00   3615.37

     exc-cor stress (kbar)   -368.15     -0.00      0.09
                               -0.00   -330.25     -0.00
                                0.09     -0.00   -313.50

     corecor stress (kbar)  -1452.54      0.00     -0.02
                                0.00  -1468.37      0.00
                               -0.02      0.00  -1476.24

     ewald   stress (kbar)  -7513.78     -0.00    150.73
                               -0.00   -164.76     -0.00
                              150.73     -0.00   1888.43

     hubbard stress (kbar)      0.00      0.00      0.00
                                0.00      0.00      0.00
                                0.00      0.00      0.00

     london  stress (kbar)      0.00      0.00      0.00
                                0.00      0.00      0.00
                                0.00      0.00      0.00

     DFT-D3  stress (kbar)    -11.35     -0.00     -0.04
                               -0.00     -8.95      0.00
                               -0.04      0.00     -6.65

     XDM     stress (kbar)      0.00      0.00      0.00
                                0.00      0.00      0.00
                                0.00      0.00      0.00

     dft-nl  stress (kbar)      0.00      0.00      0.00
                                0.00      0.00      0.00
                                0.00      0.00      0.00

     TS-vdW  stress (kbar)      0.00      0.00      0.00
                                0.00      0.00      0.00
                                0.00      0.00      0.00



     number of scf cycles    =   3
     number of bfgs steps    =   2

     enthalpy old            =    -371.5337600150 Ry
     enthalpy new            =    -371.5331471235 Ry

     CASE: enthalpy_new > enthalpy_old

     new trust radius        =       5.3130602747 bohr
     new conv_thr            =       0.0000000002 Ry

     new unit-cell volume =   2524.66003 a.u.^3 (   374.11601 Ang^3 )
     density =      1.58220 g/cm^3

CELL_PARAMETERS (angstrom)
   5.880741157   1.420440780  -3.741874104
   0.373788718   5.630392146   1.380480211
   4.472735756  -1.845330354   7.782429457

ATOMIC_POSITIONS (angstrom)
C       -0.142469106   1.220245483   0.146297794
C       -0.836654967   0.708568958  -0.683696685
C       -1.688413223   1.386802396  -1.388553626
C       -2.358241958   0.862070713  -2.195248041
C        0.142469106  -1.220245483  -0.146297794
C       -0.691463229  -0.544313018  -0.833338491
C       -1.402516865  -1.053694020  -1.681421781
C       -2.213015352  -0.369496835  -2.343762421
C        0.691463229   0.544313018   0.833338491
C        1.402516865   1.053694020   1.681421781
C        2.213015352   0.369496835   2.343762421
C        0.836654967  -0.708568958   0.683696685
C        1.688413223  -1.386802396   1.388553626
C        2.358241958  -0.862070713   2.195248041
H       -0.255013528   2.164274595   0.259766899
H       -1.801362310   2.328719959  -1.274953019
H       -3.007876939   1.389609981  -2.723790737
H        0.255013528  -2.164274595  -0.259766899
H       -1.290398683  -1.996416382  -1.794383810
H       -2.749722965  -0.770882249  -2.987264593
H        1.290398683   1.996416382   1.794383810
H        2.749722965   0.770882249   2.987264593
H        1.801362310  -2.328719959   1.274953019
H        3.007876939  -1.389609981   2.723790737
C        3.428349686   4.694395484  -0.741197791
C        2.526704747   4.350329370  -1.678321593
C        1.902528827   5.149644343  -2.205537162
C        1.022631901   4.788422756  -3.124193484
C        2.826179576   2.356434933  -1.620198656
C        2.218682540   3.150510428  -2.130044145
C        1.299379975   2.811413182  -3.084332622
C        0.717273256   3.607971926  -3.567069973
C        4.035846722   3.900319989  -0.231352302
C        4.955148044   4.239418254   0.722940515
C        5.537256332   3.442863712   1.205672607
C        3.727828629   2.700507562  -0.683068964
C        4.351999517   1.901192314  -0.155855865
C        5.231901150   2.262408955   0.762803846
H        3.663634201   5.599208888  -0.401360744
H        2.137203036   6.052985130  -1.865877003
H        0.553726447   5.408389254  -3.517279580
H        2.590895062   1.451621529  -1.960035703
H        1.063952362   1.908345806  -3.423090367
H        0.014535709   3.335619270  -4.291731826
H        5.190575657   5.142485629   1.061698259
H        6.239997342   3.715212441   1.930342188
H        4.117326552   0.997850508  -0.495520364
H        5.700807848   1.642441439   1.155885602



 %%%%%%%%%%%%%%%%%%%%%%%%%%%%%%%%%%%%%%%%%%%%%%%%%%%%%%%%%%%%%%%%%%%%%%%%%%%%%%
     Error in routine checkallsym (2):
     not orthogonal operation
 %%%%%%%%%%%%%%%%%%%%%%%%%%%%%%%%%%%%%%%%%%%%%%%%%%%%%%%%%%%%%%%%%%%%%%%%%%%%%%

     stopping ...
--------------------------------------------------------------------------
MPI_ABORT was invoked on rank 0 in communicator MPI_COMM_WORLD
with errorcode 1.

NOTE: invoking MPI_ABORT causes Open MPI to kill all MPI processes.
You may or may not see output from other processes, depending on
exactly when Open MPI kills them.
--------------------------------------------------------------------------
